calculator: lammps
length_unit: angstrom
nqpoint: 306    
npath: 6      
segment_nqpoint:
- 51
- 51
- 51
- 51
- 51
- 51
labels:
- [ 'G', 'X' ]
- [ 'X', 'U' ]
- [ 'U', 'K' ]
- [ 'K', 'G' ]
- [ 'G', 'L' ]
- [ 'L', 'W' ]
reciprocal_lattice:
- [   0.38950896,  -0.22488310,  -0.15901637 ] # a*
- [   0.00000000,   0.44976621,  -0.15901637 ] # b*
- [   0.00000000,   0.00000000,   0.47704910 ] # c*
natom: 1      
lattice:
- [     2.567335016878709,     0.000000000000000,     0.000000000000000 ] # a
- [     1.283667508439355,     2.223377344642312,     0.000000000000000 ] # b
- [     1.283667508439355,     0.741125781547437,     2.096220263377492 ] # c
points:
- symbol: Cu # 1
  coordinates: [  0.000000000000000,  0.000000000000000,  0.000000000000000 ]
  mass: 63.546000

phonon:
- q-position: [    0.0000000,    0.0000000,    0.0000000 ]
  distance:    0.0000000
  band:
  - # 1
    frequency:   -0.0007070959
  - # 2
    frequency:   -0.0007070959
  - # 3
    frequency:   -0.0007070959

- q-position: [    0.0100000,    0.0000000,    0.0100000 ]
  distance:    0.0055085
  band:
  - # 1
    frequency:    0.1622168639
  - # 2
    frequency:    0.1622168639
  - # 3
    frequency:    0.2414898889

- q-position: [    0.0200000,    0.0000000,    0.0200000 ]
  distance:    0.0110170
  band:
  - # 1
    frequency:    0.3242107274
  - # 2
    frequency:    0.3242107274
  - # 3
    frequency:    0.4826277266

- q-position: [    0.0300000,    0.0000000,    0.0300000 ]
  distance:    0.0165255
  band:
  - # 1
    frequency:    0.4857542124
  - # 2
    frequency:    0.4857542124
  - # 3
    frequency:    0.7230592930

- q-position: [    0.0400000,    0.0000000,    0.0400000 ]
  distance:    0.0220340
  band:
  - # 1
    frequency:    0.6466246613
  - # 2
    frequency:    0.6466246613
  - # 3
    frequency:    0.9624350781

- q-position: [    0.0500000,    0.0000000,    0.0500000 ]
  distance:    0.0275424
  band:
  - # 1
    frequency:    0.8066013634
  - # 2
    frequency:    0.8066013634
  - # 3
    frequency:    1.2004091773

- q-position: [    0.0600000,    0.0000000,    0.0600000 ]
  distance:    0.0330509
  band:
  - # 1
    frequency:    0.9654665424
  - # 2
    frequency:    0.9654665424
  - # 3
    frequency:    1.4366406990

- q-position: [    0.0700000,    0.0000000,    0.0700000 ]
  distance:    0.0385594
  band:
  - # 1
    frequency:    1.1230061053
  - # 2
    frequency:    1.1230061053
  - # 3
    frequency:    1.6707949951

- q-position: [    0.0800000,    0.0000000,    0.0800000 ]
  distance:    0.0440679
  band:
  - # 1
    frequency:    1.2790103418
  - # 2
    frequency:    1.2790103418
  - # 3
    frequency:    1.9025448347

- q-position: [    0.0900000,    0.0000000,    0.0900000 ]
  distance:    0.0495764
  band:
  - # 1
    frequency:    1.4332745914
  - # 2
    frequency:    1.4332745914
  - # 3
    frequency:    2.1315715299

- q-position: [    0.1000000,    0.0000000,    0.1000000 ]
  distance:    0.0550849
  band:
  - # 1
    frequency:    1.5855998770
  - # 2
    frequency:    1.5855998770
  - # 3
    frequency:    2.3575660086

- q-position: [    0.1100000,    0.0000000,    0.1100000 ]
  distance:    0.0605934
  band:
  - # 1
    frequency:    1.7357935038
  - # 2
    frequency:    1.7357935038
  - # 3
    frequency:    2.5802298284

- q-position: [    0.1200000,    0.0000000,    0.1200000 ]
  distance:    0.0661019
  band:
  - # 1
    frequency:    1.8836696194
  - # 2
    frequency:    1.8836696194
  - # 3
    frequency:    2.7992761257

- q-position: [    0.1300000,    0.0000000,    0.1300000 ]
  distance:    0.0716104
  band:
  - # 1
    frequency:    2.0290497314
  - # 2
    frequency:    2.0290497314
  - # 3
    frequency:    3.0144304938

- q-position: [    0.1400000,    0.0000000,    0.1400000 ]
  distance:    0.0771188
  band:
  - # 1
    frequency:    2.1717631796
  - # 2
    frequency:    2.1717631796
  - # 3
    frequency:    3.2254317833

- q-position: [    0.1500000,    0.0000000,    0.1500000 ]
  distance:    0.0826273
  band:
  - # 1
    frequency:    2.3116475593
  - # 2
    frequency:    2.3116475593
  - # 3
    frequency:    3.4320328204

- q-position: [    0.1600000,    0.0000000,    0.1600000 ]
  distance:    0.0881358
  band:
  - # 1
    frequency:    2.4485490928
  - # 2
    frequency:    2.4485490928
  - # 3
    frequency:    3.6340010376

- q-position: [    0.1700000,    0.0000000,    0.1700000 ]
  distance:    0.0936443
  band:
  - # 1
    frequency:    2.5823229475
  - # 2
    frequency:    2.5823229475
  - # 3
    frequency:    3.8311190112

- q-position: [    0.1800000,    0.0000000,    0.1800000 ]
  distance:    0.0991528
  band:
  - # 1
    frequency:    2.7128334964
  - # 2
    frequency:    2.7128334964
  - # 3
    frequency:    4.0231849022

- q-position: [    0.1900000,    0.0000000,    0.1900000 ]
  distance:    0.1046613
  band:
  - # 1
    frequency:    2.8399545210
  - # 2
    frequency:    2.8399545210
  - # 3
    frequency:    4.2100127975

- q-position: [    0.2000000,    0.0000000,    0.2000000 ]
  distance:    0.1101698
  band:
  - # 1
    frequency:    2.9635693533
  - # 2
    frequency:    2.9635693533
  - # 3
    frequency:    4.3914329456

- q-position: [    0.2100000,    0.0000000,    0.2100000 ]
  distance:    0.1156783
  band:
  - # 1
    frequency:    3.0835709574
  - # 2
    frequency:    3.0835709574
  - # 3
    frequency:    4.5672918883

- q-position: [    0.2200000,    0.0000000,    0.2200000 ]
  distance:    0.1211867
  band:
  - # 1
    frequency:    3.1998619486
  - # 2
    frequency:    3.1998619486
  - # 3
    frequency:    4.7374524826

- q-position: [    0.2300000,    0.0000000,    0.2300000 ]
  distance:    0.1266952
  band:
  - # 1
    frequency:    3.3123545503
  - # 2
    frequency:    3.3123545503
  - # 3
    frequency:    4.9017938145

- q-position: [    0.2400000,    0.0000000,    0.2400000 ]
  distance:    0.1322037
  band:
  - # 1
    frequency:    3.4209704885
  - # 2
    frequency:    3.4209704885
  - # 3
    frequency:    5.0602110031

- q-position: [    0.2500000,    0.0000000,    0.2500000 ]
  distance:    0.1377122
  band:
  - # 1
    frequency:    3.5256408256
  - # 2
    frequency:    3.5256408256
  - # 3
    frequency:    5.2126148958

- q-position: [    0.2600000,    0.0000000,    0.2600000 ]
  distance:    0.1432207
  band:
  - # 1
    frequency:    3.6263057327
  - # 2
    frequency:    3.6263057327
  - # 3
    frequency:    5.3589316563

- q-position: [    0.2700000,    0.0000000,    0.2700000 ]
  distance:    0.1487292
  band:
  - # 1
    frequency:    3.7229142042
  - # 2
    frequency:    3.7229142042
  - # 3
    frequency:    5.4991022476

- q-position: [    0.2800000,    0.0000000,    0.2800000 ]
  distance:    0.1542377
  band:
  - # 1
    frequency:    3.8154237159
  - # 2
    frequency:    3.8154237159
  - # 3
    frequency:    5.6330818133

- q-position: [    0.2900000,    0.0000000,    0.2900000 ]
  distance:    0.1597462
  band:
  - # 1
    frequency:    3.9037998291
  - # 2
    frequency:    3.9037998291
  - # 3
    frequency:    5.7608389615

- q-position: [    0.3000000,    0.0000000,    0.3000000 ]
  distance:    0.1652547
  band:
  - # 1
    frequency:    3.9880157452
  - # 2
    frequency:    3.9880157452
  - # 3
    frequency:    5.8823549576

- q-position: [    0.3100000,    0.0000000,    0.3100000 ]
  distance:    0.1707631
  band:
  - # 1
    frequency:    4.0680518137
  - # 2
    frequency:    4.0680518137
  - # 3
    frequency:    5.9976228312

- q-position: [    0.3200000,    0.0000000,    0.3200000 ]
  distance:    0.1762716
  band:
  - # 1
    frequency:    4.1438949985
  - # 2
    frequency:    4.1438949985
  - # 3
    frequency:    6.1066464054

- q-position: [    0.3300000,    0.0000000,    0.3300000 ]
  distance:    0.1817801
  band:
  - # 1
    frequency:    4.2155383079
  - # 2
    frequency:    4.2155383079
  - # 3
    frequency:    6.2094392575

- q-position: [    0.3400000,    0.0000000,    0.3400000 ]
  distance:    0.1872886
  band:
  - # 1
    frequency:    4.2829801930
  - # 2
    frequency:    4.2829801930
  - # 3
    frequency:    6.3060236194

- q-position: [    0.3500000,    0.0000000,    0.3500000 ]
  distance:    0.1927971
  band:
  - # 1
    frequency:    4.3462239211
  - # 2
    frequency:    4.3462239211
  - # 3
    frequency:    6.3964292297

- q-position: [    0.3600000,    0.0000000,    0.3600000 ]
  distance:    0.1983056
  band:
  - # 1
    frequency:    4.4052769305
  - # 2
    frequency:    4.4052769305
  - # 3
    frequency:    6.4806921483

- q-position: [    0.3700000,    0.0000000,    0.3700000 ]
  distance:    0.2038141
  band:
  - # 1
    frequency:    4.4601501734
  - # 2
    frequency:    4.4601501734
  - # 3
    frequency:    6.5588535458

- q-position: [    0.3800000,    0.0000000,    0.3800000 ]
  distance:    0.2093226
  band:
  - # 1
    frequency:    4.5108574534
  - # 2
    frequency:    4.5108574534
  - # 3
    frequency:    6.6309584807

- q-position: [    0.3900000,    0.0000000,    0.3900000 ]
  distance:    0.2148311
  band:
  - # 1
    frequency:    4.5574147662
  - # 2
    frequency:    4.5574147662
  - # 3
    frequency:    6.6970546782

- q-position: [    0.4000000,    0.0000000,    0.4000000 ]
  distance:    0.2203395
  band:
  - # 1
    frequency:    4.5998396496
  - # 2
    frequency:    4.5998396496
  - # 3
    frequency:    6.7571913236

- q-position: [    0.4100000,    0.0000000,    0.4100000 ]
  distance:    0.2258480
  band:
  - # 1
    frequency:    4.6381505511
  - # 2
    frequency:    4.6381505511
  - # 3
    frequency:    6.8114178863

- q-position: [    0.4200000,    0.0000000,    0.4200000 ]
  distance:    0.2313565
  band:
  - # 1
    frequency:    4.6723662204
  - # 2
    frequency:    4.6723662204
  - # 3
    frequency:    6.8597829864

- q-position: [    0.4300000,    0.0000000,    0.4300000 ]
  distance:    0.2368650
  band:
  - # 1
    frequency:    4.7025051336
  - # 2
    frequency:    4.7025051336
  - # 3
    frequency:    6.9023333189

- q-position: [    0.4400000,    0.0000000,    0.4400000 ]
  distance:    0.2423735
  band:
  - # 1
    frequency:    4.7285849572
  - # 2
    frequency:    4.7285849572
  - # 3
    frequency:    6.9391126494

- q-position: [    0.4500000,    0.0000000,    0.4500000 ]
  distance:    0.2478820
  band:
  - # 1
    frequency:    4.7506220568
  - # 2
    frequency:    4.7506220568
  - # 3
    frequency:    6.9701608937

- q-position: [    0.4600000,    0.0000000,    0.4600000 ]
  distance:    0.2533905
  band:
  - # 1
    frequency:    4.7686310588
  - # 2
    frequency:    4.7686310588
  - # 3
    frequency:    6.9955132926

- q-position: [    0.4700000,    0.0000000,    0.4700000 ]
  distance:    0.2588990
  band:
  - # 1
    frequency:    4.7826244684
  - # 2
    frequency:    4.7826244684
  - # 3
    frequency:    7.0151996948

- q-position: [    0.4800000,    0.0000000,    0.4800000 ]
  distance:    0.2644075
  band:
  - # 1
    frequency:    4.7926123511
  - # 2
    frequency:    4.7926123511
  - # 3
    frequency:    7.0292439555

- q-position: [    0.4900000,    0.0000000,    0.4900000 ]
  distance:    0.2699159
  band:
  - # 1
    frequency:    4.7986020799
  - # 2
    frequency:    4.7986020799
  - # 3
    frequency:    7.0376634602

- q-position: [    0.5000000,    0.0000000,    0.5000000 ]
  distance:    0.2754244
  band:
  - # 1
    frequency:    4.8005981523
  - # 2
    frequency:    4.8005981523
  - # 3
    frequency:    7.0404687795

- q-position: [    0.5000000,    0.0000000,    0.5000000 ]
  distance:    0.2754244
  band:
  - # 1
    frequency:    4.8005981523
  - # 2
    frequency:    4.8005981523
  - # 3
    frequency:    7.0404687795

- q-position: [    0.5025000,    0.0050000,    0.5025000 ]
  distance:    0.2773720
  band:
  - # 1
    frequency:    4.8004578645
  - # 2
    frequency:    4.8010575035
  - # 3
    frequency:    7.0402030860

- q-position: [    0.5050000,    0.0100000,    0.5050000 ]
  distance:    0.2793195
  band:
  - # 1
    frequency:    4.8000370095
  - # 2
    frequency:    4.8024348677
  - # 3
    frequency:    7.0394060949

- q-position: [    0.5075000,    0.0150000,    0.5075000 ]
  distance:    0.2812671
  band:
  - # 1
    frequency:    4.7993356126
  - # 2
    frequency:    4.8047281794
  - # 3
    frequency:    7.0380780747

- q-position: [    0.5100000,    0.0200000,    0.5100000 ]
  distance:    0.2832146
  band:
  - # 1
    frequency:    4.7983537160
  - # 2
    frequency:    4.8079340031
  - # 3
    frequency:    7.0362194724

- q-position: [    0.5125000,    0.0250000,    0.5125000 ]
  distance:    0.2851622
  band:
  - # 1
    frequency:    4.7970913786
  - # 2
    frequency:    4.8120475438
  - # 3
    frequency:    7.0338309133

- q-position: [    0.5150000,    0.0300000,    0.5150000 ]
  distance:    0.2871097
  band:
  - # 1
    frequency:    4.7955486762
  - # 2
    frequency:    4.8170626620
  - # 3
    frequency:    7.0309131998

- q-position: [    0.5175000,    0.0350000,    0.5175000 ]
  distance:    0.2890572
  band:
  - # 1
    frequency:    4.7937257013
  - # 2
    frequency:    4.8229718922
  - # 3
    frequency:    7.0274673108

- q-position: [    0.5200000,    0.0400000,    0.5200000 ]
  distance:    0.2910048
  band:
  - # 1
    frequency:    4.7916225630
  - # 2
    frequency:    4.8297664653
  - # 3
    frequency:    7.0234944001

- q-position: [    0.5225000,    0.0450000,    0.5225000 ]
  distance:    0.2929523
  band:
  - # 1
    frequency:    4.7892393868
  - # 2
    frequency:    4.8374363350
  - # 3
    frequency:    7.0189957957

- q-position: [    0.5250000,    0.0500000,    0.5250000 ]
  distance:    0.2948999
  band:
  - # 1
    frequency:    4.7865763149
  - # 2
    frequency:    4.8459702075
  - # 3
    frequency:    7.0139729975

- q-position: [    0.5275000,    0.0550000,    0.5275000 ]
  distance:    0.2968474
  band:
  - # 1
    frequency:    4.7836335056
  - # 2
    frequency:    4.8553555738
  - # 3
    frequency:    7.0084276758

- q-position: [    0.5300000,    0.0600000,    0.5300000 ]
  distance:    0.2987950
  band:
  - # 1
    frequency:    4.7804111335
  - # 2
    frequency:    4.8655787464
  - # 3
    frequency:    7.0023616694

- q-position: [    0.5325000,    0.0650000,    0.5325000 ]
  distance:    0.3007425
  band:
  - # 1
    frequency:    4.7769093894
  - # 2
    frequency:    4.8766248969
  - # 3
    frequency:    6.9957769831

- q-position: [    0.5350000,    0.0700000,    0.5350000 ]
  distance:    0.3026901
  band:
  - # 1
    frequency:    4.7731284797
  - # 2
    frequency:    4.8884780975
  - # 3
    frequency:    6.9886757855

- q-position: [    0.5375000,    0.0750000,    0.5375000 ]
  distance:    0.3046376
  band:
  - # 1
    frequency:    4.7690686267
  - # 2
    frequency:    4.9011213640
  - # 3
    frequency:    6.9810604062

- q-position: [    0.5400000,    0.0800000,    0.5400000 ]
  distance:    0.3065851
  band:
  - # 1
    frequency:    4.7647300684
  - # 2
    frequency:    4.9145367004
  - # 3
    frequency:    6.9729333331

- q-position: [    0.5425000,    0.0850000,    0.5425000 ]
  distance:    0.3085327
  band:
  - # 1
    frequency:    4.7601130579
  - # 2
    frequency:    4.9287051457
  - # 3
    frequency:    6.9642972096

- q-position: [    0.5450000,    0.0900000,    0.5450000 ]
  distance:    0.3104802
  band:
  - # 1
    frequency:    4.7552178637
  - # 2
    frequency:    4.9436068213
  - # 3
    frequency:    6.9551548308

- q-position: [    0.5475000,    0.0950000,    0.5475000 ]
  distance:    0.3124278
  band:
  - # 1
    frequency:    4.7500447693
  - # 2
    frequency:    4.9592209798
  - # 3
    frequency:    6.9455091407

- q-position: [    0.5500000,    0.1000000,    0.5500000 ]
  distance:    0.3143753
  band:
  - # 1
    frequency:    4.7445940727
  - # 2
    frequency:    4.9755260541
  - # 3
    frequency:    6.9353632284

- q-position: [    0.5525000,    0.1050000,    0.5525000 ]
  distance:    0.3163229
  band:
  - # 1
    frequency:    4.7388660867
  - # 2
    frequency:    4.9924997072
  - # 3
    frequency:    6.9247203241

- q-position: [    0.5550000,    0.1100000,    0.5550000 ]
  distance:    0.3182704
  band:
  - # 1
    frequency:    4.7328611383
  - # 2
    frequency:    5.0101188822
  - # 3
    frequency:    6.9135837959

- q-position: [    0.5575000,    0.1150000,    0.5575000 ]
  distance:    0.3202180
  band:
  - # 1
    frequency:    4.7265795685
  - # 2
    frequency:    5.0283598516
  - # 3
    frequency:    6.9019571448

- q-position: [    0.5600000,    0.1200000,    0.5600000 ]
  distance:    0.3221655
  band:
  - # 1
    frequency:    4.7200217322
  - # 2
    frequency:    5.0471982668
  - # 3
    frequency:    6.8898440011

- q-position: [    0.5625000,    0.1250000,    0.5625000 ]
  distance:    0.3241130
  band:
  - # 1
    frequency:    4.7131879977
  - # 2
    frequency:    5.0666092072
  - # 3
    frequency:    6.8772481197

- q-position: [    0.5650000,    0.1300000,    0.5650000 ]
  distance:    0.3260606
  band:
  - # 1
    frequency:    4.7060787468
  - # 2
    frequency:    5.0865672277
  - # 3
    frequency:    6.8641733756

- q-position: [    0.5675000,    0.1350000,    0.5675000 ]
  distance:    0.3280081
  band:
  - # 1
    frequency:    4.6986943741
  - # 2
    frequency:    5.1070464063
  - # 3
    frequency:    6.8506237590

- q-position: [    0.5700000,    0.1400000,    0.5700000 ]
  distance:    0.3299557
  band:
  - # 1
    frequency:    4.6910352870
  - # 2
    frequency:    5.1280203900
  - # 3
    frequency:    6.8366033709

- q-position: [    0.5725000,    0.1450000,    0.5725000 ]
  distance:    0.3319032
  band:
  - # 1
    frequency:    4.6831019053
  - # 2
    frequency:    5.1494624392
  - # 3
    frequency:    6.8221164175

- q-position: [    0.5750000,    0.1500000,    0.5750000 ]
  distance:    0.3338508
  band:
  - # 1
    frequency:    4.6748946610
  - # 2
    frequency:    5.1713454718
  - # 3
    frequency:    6.8071672054

- q-position: [    0.5775000,    0.1550000,    0.5775000 ]
  distance:    0.3357983
  band:
  - # 1
    frequency:    4.6664139981
  - # 2
    frequency:    5.1936421047
  - # 3
    frequency:    6.7917601363

- q-position: [    0.5800000,    0.1600000,    0.5800000 ]
  distance:    0.3377459
  band:
  - # 1
    frequency:    4.6576603718
  - # 2
    frequency:    5.2163246946
  - # 3
    frequency:    6.7758997015

- q-position: [    0.5825000,    0.1650000,    0.5825000 ]
  distance:    0.3396934
  band:
  - # 1
    frequency:    4.6486342489
  - # 2
    frequency:    5.2393653768
  - # 3
    frequency:    6.7595904767

- q-position: [    0.5850000,    0.1700000,    0.5850000 ]
  distance:    0.3416410
  band:
  - # 1
    frequency:    4.6393361071
  - # 2
    frequency:    5.2627361025
  - # 3
    frequency:    6.7428371158

- q-position: [    0.5875000,    0.1750000,    0.5875000 ]
  distance:    0.3435885
  band:
  - # 1
    frequency:    4.6297664348
  - # 2
    frequency:    5.2864086743
  - # 3
    frequency:    6.7256443459

- q-position: [    0.5900000,    0.1800000,    0.5900000 ]
  distance:    0.3455360
  band:
  - # 1
    frequency:    4.6199257306
  - # 2
    frequency:    5.3103547805
  - # 3
    frequency:    6.7080169611

- q-position: [    0.5925000,    0.1850000,    0.5925000 ]
  distance:    0.3474836
  band:
  - # 1
    frequency:    4.6098145033
  - # 2
    frequency:    5.3345460267
  - # 3
    frequency:    6.6899598165

- q-position: [    0.5950000,    0.1900000,    0.5950000 ]
  distance:    0.3494311
  band:
  - # 1
    frequency:    4.5994332716
  - # 2
    frequency:    5.3589539669
  - # 3
    frequency:    6.6714778227

- q-position: [    0.5975000,    0.1950000,    0.5975000 ]
  distance:    0.3513787
  band:
  - # 1
    frequency:    4.5887825634
  - # 2
    frequency:    5.3835501324
  - # 3
    frequency:    6.6525759395

- q-position: [    0.6000000,    0.2000000,    0.6000000 ]
  distance:    0.3533262
  band:
  - # 1
    frequency:    4.5778629161
  - # 2
    frequency:    5.4083060585
  - # 3
    frequency:    6.6332591696

- q-position: [    0.6025000,    0.2050000,    0.6025000 ]
  distance:    0.3552738
  band:
  - # 1
    frequency:    4.5666748757
  - # 2
    frequency:    5.4331933110
  - # 3
    frequency:    6.6135325530

- q-position: [    0.6050000,    0.2100000,    0.6050000 ]
  distance:    0.3572213
  band:
  - # 1
    frequency:    4.5552189970
  - # 2
    frequency:    5.4581835095
  - # 3
    frequency:    6.5934011604

- q-position: [    0.6075000,    0.2150000,    0.6075000 ]
  distance:    0.3591689
  band:
  - # 1
    frequency:    4.5434958430
  - # 2
    frequency:    5.4832483505
  - # 3
    frequency:    6.5728700872

- q-position: [    0.6100000,    0.2200000,    0.6100000 ]
  distance:    0.3611164
  band:
  - # 1
    frequency:    4.5315059848
  - # 2
    frequency:    5.5083596283
  - # 3
    frequency:    6.5519444470

- q-position: [    0.6125000,    0.2250000,    0.6125000 ]
  distance:    0.3630639
  band:
  - # 1
    frequency:    4.5192500014
  - # 2
    frequency:    5.5334892549
  - # 3
    frequency:    6.5306293659

- q-position: [    0.6150000,    0.2300000,    0.6150000 ]
  distance:    0.3650115
  band:
  - # 1
    frequency:    4.5067284789
  - # 2
    frequency:    5.5586092782
  - # 3
    frequency:    6.5089299756

- q-position: [    0.6175000,    0.2350000,    0.6175000 ]
  distance:    0.3669590
  band:
  - # 1
    frequency:    4.4939420111
  - # 2
    frequency:    5.5836918994
  - # 3
    frequency:    6.4868514077

- q-position: [    0.6200000,    0.2400000,    0.6200000 ]
  distance:    0.3689066
  band:
  - # 1
    frequency:    4.4808911986
  - # 2
    frequency:    5.6087094886
  - # 3
    frequency:    6.4643987870

- q-position: [    0.6225000,    0.2450000,    0.6225000 ]
  distance:    0.3708541
  band:
  - # 1
    frequency:    4.4675766485
  - # 2
    frequency:    5.6336345997
  - # 3
    frequency:    6.4415772258

- q-position: [    0.6250000,    0.2500000,    0.6250000 ]
  distance:    0.3728017
  band:
  - # 1
    frequency:    4.4539989749
  - # 2
    frequency:    5.6584399844
  - # 3
    frequency:    6.4183918171

- q-position: [    0.6250000,    0.2500000,    0.6250000 ]
  distance:    0.3728017
  band:
  - # 1
    frequency:    4.4539989749
  - # 2
    frequency:    5.6584399844
  - # 3
    frequency:    6.4183918171

- q-position: [    0.6200000,    0.2525000,    0.6275000 ]
  distance:    0.3761749
  band:
  - # 1
    frequency:    4.4478793787
  - # 2
    frequency:    5.6702999581
  - # 3
    frequency:    6.4064950686

- q-position: [    0.6150000,    0.2550000,    0.6300000 ]
  distance:    0.3795482
  band:
  - # 1
    frequency:    4.4432331555
  - # 2
    frequency:    5.6810695731
  - # 3
    frequency:    6.3942686003

- q-position: [    0.6100000,    0.2575000,    0.6325000 ]
  distance:    0.3829214
  band:
  - # 1
    frequency:    4.4400540028
  - # 2
    frequency:    5.6906407747
  - # 3
    frequency:    6.3818657884

- q-position: [    0.6050000,    0.2600000,    0.6350000 ]
  distance:    0.3862947
  band:
  - # 1
    frequency:    4.4383203426
  - # 2
    frequency:    5.6989107522
  - # 3
    frequency:    6.3694463291

- q-position: [    0.6000000,    0.2625000,    0.6375000 ]
  distance:    0.3896679
  band:
  - # 1
    frequency:    4.4379954835
  - # 2
    frequency:    5.7057849654
  - # 3
    frequency:    6.3571730567

- q-position: [    0.5950000,    0.2650000,    0.6400000 ]
  distance:    0.3930411
  band:
  - # 1
    frequency:    4.4390277022
  - # 2
    frequency:    5.7111813171
  - # 3
    frequency:    6.3452077385

- q-position: [    0.5900000,    0.2675000,    0.6425000 ]
  distance:    0.3964144
  band:
  - # 1
    frequency:    4.4413502675
  - # 2
    frequency:    5.7150354072
  - # 3
    frequency:    6.3337058865

- q-position: [    0.5850000,    0.2700000,    0.6450000 ]
  distance:    0.3997876
  band:
  - # 1
    frequency:    4.4448814361
  - # 2
    frequency:    5.7173066103
  - # 3
    frequency:    6.3228108132

- q-position: [    0.5800000,    0.2725000,    0.6475000 ]
  distance:    0.4031609
  band:
  - # 1
    frequency:    4.4495244516
  - # 2
    frequency:    5.7179844851
  - # 3
    frequency:    6.3126473882

- q-position: [    0.5750000,    0.2750000,    0.6500000 ]
  distance:    0.4065341
  band:
  - # 1
    frequency:    4.4551675851
  - # 2
    frequency:    5.7170948035
  - # 3
    frequency:    6.3033161671

- q-position: [    0.5700000,    0.2775000,    0.6525000 ]
  distance:    0.4099074
  band:
  - # 1
    frequency:    4.4616842691
  - # 2
    frequency:    5.7147043553
  - # 3
    frequency:    6.2948886798

- q-position: [    0.5650000,    0.2800000,    0.6550000 ]
  distance:    0.4132806
  band:
  - # 1
    frequency:    4.4689333883
  - # 2
    frequency:    5.7109237155
  - # 3
    frequency:    6.2874046229

- q-position: [    0.5600000,    0.2825000,    0.6575000 ]
  distance:    0.4166539
  band:
  - # 1
    frequency:    4.4767598117
  - # 2
    frequency:    5.7059073832
  - # 3
    frequency:    6.2808714590

- q-position: [    0.5550000,    0.2850000,    0.6600000 ]
  distance:    0.4200271
  band:
  - # 1
    frequency:    4.4849952681
  - # 2
    frequency:    5.6998510721
  - # 3
    frequency:    6.2752665323

- q-position: [    0.5500000,    0.2875000,    0.6625000 ]
  distance:    0.4234004
  band:
  - # 1
    frequency:    4.4934596897
  - # 2
    frequency:    5.6929863411
  - # 3
    frequency:    6.2705413858

- q-position: [    0.5450000,    0.2900000,    0.6650000 ]
  distance:    0.4267736
  band:
  - # 1
    frequency:    4.5019631618
  - # 2
    frequency:    5.6855730730
  - # 3
    frequency:    6.2666276237

- q-position: [    0.5400000,    0.2925000,    0.6675000 ]
  distance:    0.4301469
  band:
  - # 1
    frequency:    4.5103086235
  - # 2
    frequency:    5.6778904626
  - # 3
    frequency:    6.2634435115

- q-position: [    0.5350000,    0.2950000,    0.6700000 ]
  distance:    0.4335201
  band:
  - # 1
    frequency:    4.5182954453
  - # 2
    frequency:    5.6702271483
  - # 3
    frequency:    6.2609005445

- q-position: [    0.5300000,    0.2975000,    0.6725000 ]
  distance:    0.4368934
  band:
  - # 1
    frequency:    4.5257239672
  - # 2
    frequency:    5.6628709855
  - # 3
    frequency:    6.2589094011

- q-position: [    0.5250000,    0.3000000,    0.6750000 ]
  distance:    0.4402666
  band:
  - # 1
    frequency:    4.5324009926
  - # 2
    frequency:    5.6560988018
  - # 3
    frequency:    6.2573849380

- q-position: [    0.5200000,    0.3025000,    0.6775000 ]
  distance:    0.4436398
  band:
  - # 1
    frequency:    4.5381461080
  - # 2
    frequency:    5.6501663767
  - # 3
    frequency:    6.2562501121

- q-position: [    0.5150000,    0.3050000,    0.6800000 ]
  distance:    0.4470131
  band:
  - # 1
    frequency:    4.5427985386
  - # 2
    frequency:    5.6452988795
  - # 3
    frequency:    6.2554388808

- q-position: [    0.5100000,    0.3075000,    0.6825000 ]
  distance:    0.4503863
  band:
  - # 1
    frequency:    4.5462240797
  - # 2
    frequency:    5.6416820751
  - # 3
    frequency:    6.2548982277

- q-position: [    0.5050000,    0.3100000,    0.6850000 ]
  distance:    0.4537596
  band:
  - # 1
    frequency:    4.5483215037
  - # 2
    frequency:    5.6394547118
  - # 3
    frequency:    6.2545894977

- q-position: [    0.5000000,    0.3125000,    0.6875000 ]
  distance:    0.4571328
  band:
  - # 1
    frequency:    4.5490277809
  - # 2
    frequency:    5.6387025798
  - # 3
    frequency:    6.2544892114

- q-position: [    0.4950000,    0.3150000,    0.6900000 ]
  distance:    0.4605061
  band:
  - # 1
    frequency:    4.5483215037
  - # 2
    frequency:    5.6394547118
  - # 3
    frequency:    6.2545894977

- q-position: [    0.4900000,    0.3175000,    0.6925000 ]
  distance:    0.4638793
  band:
  - # 1
    frequency:    4.5462240797
  - # 2
    frequency:    5.6416820751
  - # 3
    frequency:    6.2548982277

- q-position: [    0.4850000,    0.3200000,    0.6950000 ]
  distance:    0.4672526
  band:
  - # 1
    frequency:    4.5427985386
  - # 2
    frequency:    5.6452988795
  - # 3
    frequency:    6.2554388808

- q-position: [    0.4800000,    0.3225000,    0.6975000 ]
  distance:    0.4706258
  band:
  - # 1
    frequency:    4.5381461080
  - # 2
    frequency:    5.6501663767
  - # 3
    frequency:    6.2562501121

- q-position: [    0.4750000,    0.3250000,    0.7000000 ]
  distance:    0.4739991
  band:
  - # 1
    frequency:    4.5324009926
  - # 2
    frequency:    5.6560988018
  - # 3
    frequency:    6.2573849380

- q-position: [    0.4700000,    0.3275000,    0.7025000 ]
  distance:    0.4773723
  band:
  - # 1
    frequency:    4.5257239672
  - # 2
    frequency:    5.6628709855
  - # 3
    frequency:    6.2589094011

- q-position: [    0.4650000,    0.3300000,    0.7050000 ]
  distance:    0.4807456
  band:
  - # 1
    frequency:    4.5182954453
  - # 2
    frequency:    5.6702271483
  - # 3
    frequency:    6.2609005445

- q-position: [    0.4600000,    0.3325000,    0.7075000 ]
  distance:    0.4841188
  band:
  - # 1
    frequency:    4.5103086235
  - # 2
    frequency:    5.6778904626
  - # 3
    frequency:    6.2634435115

- q-position: [    0.4550000,    0.3350000,    0.7100000 ]
  distance:    0.4874921
  band:
  - # 1
    frequency:    4.5019631618
  - # 2
    frequency:    5.6855730730
  - # 3
    frequency:    6.2666276237

- q-position: [    0.4500000,    0.3375000,    0.7125000 ]
  distance:    0.4908653
  band:
  - # 1
    frequency:    4.4934596897
  - # 2
    frequency:    5.6929863411
  - # 3
    frequency:    6.2705413858

- q-position: [    0.4450000,    0.3400000,    0.7150000 ]
  distance:    0.4942385
  band:
  - # 1
    frequency:    4.4849952681
  - # 2
    frequency:    5.6998510721
  - # 3
    frequency:    6.2752665323
