#

4 atoms
1 atom types

0.0 3.6307600000252287 xlo xhi
0.0 3.6307600000252287 ylo yhi
0.0 3.6307600000252287 zlo zhi

2.2231993062515703e-16 2.2231993062515703e-16 4.030953348916043e-16 xy xz yz


Atom Type Labels

1 Cu


Atoms

1 Cu 0.0 0.0 0.0
2 Cu 2.2231993062515703e-16 1.8153800000126146 1.8153800000126143
3 Cu 1.8153800000126146 2.0154766744580214e-16 1.8153800000126143
4 Cu 1.8153800000126146 1.8153800000126143 0.0