ITEM: TIMESTEP
0
ITEM: NUMBER OF ATOMS
27
ITEM: BOX BOUNDS xy xz yz pp pp pp
0.0000000000000000e+00 1.5404010101272254e+01 3.8510025253180649e+00
0.0000000000000000e+00 8.8935093785692452e+00 3.8510025253180644e+00
0.0000000000000000e+00 6.2886607901324751e+00 2.2233773446423113e+00
ITEM: ATOMS id type x y z fx fy fz
1 1      0.01000000      0.00000000      0.00000000     -0.06401971     -0.00000000     -0.00000000
2 1      2.56733502      0.00000000      0.00000000      0.01721334     -0.00000000      0.00000000
4 1      1.28366751      2.22337734      0.00000000      0.00346247      0.00778091      0.00015899
5 1      3.85100253      2.22337734      0.00000000      0.00087912      0.00000490     -0.00000202
7 1      2.56733502      4.44675469      0.00000000      0.00342166      0.00759059      0.00015542
8 1      5.13467003      4.44675469      0.00000000      0.00346247     -0.00778091     -0.00015899
10 1      1.28366751      0.74112578      2.09622026      0.00346247      0.00274354      0.00728291
11 1      3.85100253      0.74112578      2.09622026      0.00087912     -0.00000027      0.00000529
13 1      2.56733502      2.96450313      2.09622026      0.00002518      0.00049287      0.00034852
14 1      5.13467003      2.96450313      2.09622026      0.00002833     -0.00049129     -0.00034739
16 1      3.85100253      5.18788047      2.09622026     -0.00125142      0.00001278     -0.00001807
17 1      6.41833754      5.18788047      2.09622026      0.00046505     -0.00027569      0.00038989
19 1      2.56733502      1.48225156      4.19244053      0.00342166      0.00267673      0.00710467
20 1      5.13467003      1.48225156      4.19244053      0.00346247     -0.00274354     -0.00728291
22 1      3.85100253      3.70562891      4.19244053     -0.00125142     -0.00001278      0.00001807
23 1      6.41833754      3.70562891      4.19244053      0.00046505      0.00027569     -0.00038989
25 1      5.13467003      5.92900625      4.19244053      0.00002833      0.00049129      0.00034739
26 1      7.70200505      5.92900625      4.19244053     -0.00001410      0.00000338      0.00000239
3 1      5.13467003      0.00000000      0.00000000      0.01631016     -0.00000000      0.00000000
6 1      6.41833754      2.22337734      0.00000000      0.00342166     -0.00759059     -0.00015542
9 1      7.70200505      4.44675469      0.00000000      0.00087912     -0.00000490      0.00000202
12 1      6.41833754      0.74112578      2.09622026      0.00342166     -0.00267673     -0.00710467
15 1      7.70200505      2.96450313      2.09622026     -0.00001410     -0.00000338     -0.00000239
18 1      8.98567256      5.18788047      2.09622026      0.00046854      0.00027977     -0.00039566
21 1      7.70200505      1.48225156      4.19244053      0.00087912      0.00000027     -0.00000529
24 1      8.98567256      3.70562891      4.19244053      0.00046854     -0.00027977      0.00039566
27 1     10.26934007      5.92900625      4.19244053      0.00002518     -0.00049287     -0.00034852
