27   
1    

1    
  0.0100000000000000   0.0000000000000000   0.0000000000000000
  -0.0640197081   -0.0000000000    0.0000000000
   0.0172133419    0.0000000000   -0.0000000000
   0.0163101619    0.0000000000   -0.0000000000
   0.0034624719    0.0077809100    0.0001589900
   0.0008791219    0.0000049000   -0.0000020200
   0.0034216619   -0.0075905900   -0.0001554200
   0.0034216619    0.0075905900    0.0001554200
   0.0034624719   -0.0077809100   -0.0001589900
   0.0008791219   -0.0000049000    0.0000020200
   0.0034624719    0.0027435400    0.0072829100
   0.0008791219   -0.0000002700    0.0000052900
   0.0034216619   -0.0026767300   -0.0071046700
   0.0000251819    0.0004928700    0.0003485200
   0.0000283319   -0.0004912900   -0.0003473900
  -0.0000140981   -0.0000033800   -0.0000023900
  -0.0012514181    0.0000127800   -0.0000180700
   0.0004650519   -0.0002756900    0.0003898900
   0.0004685419    0.0002797700   -0.0003956600
   0.0034216619    0.0026767300    0.0071046700
   0.0034624719   -0.0027435400   -0.0072829100
   0.0008791219    0.0000002700   -0.0000052900
  -0.0012514181   -0.0000127800    0.0000180700
   0.0004650519    0.0002756900   -0.0003898900
   0.0004685419   -0.0002797700    0.0003956600
   0.0000283319    0.0004912900    0.0003473900
  -0.0000140981    0.0000033800    0.0000023900
   0.0000251819   -0.0004928700   -0.0003485200
