LAMMPS (28 Mar 2023)
units metal

read_data supercell-001
Reading data file ...
  triclinic box = (0 0 0) to (7.7020051 6.670132 6.2886608) with tilt (3.8510025 3.8510025 2.2233773)
WARNING: Triclinic box skew is large. LAMMPS will run inefficiently. (../domain.cpp:220)
  2 by 1 by 2 MPI processor grid
  reading atom labelmap ...
  reading atoms ...
  27 atoms
  read_data CPU = 0.063 seconds
mass 1 63.546

include ../potential.in
# Define the interatomic potential
pair_style pace
ACE version: 2022.6.27
Recursive evaluator is used
pair_coeff * * ../../potential/output_potential_sfe.yace Cu
Loading ../../potential/output_potential_sfe.yace
Total number of basis functions
	Cu: 41 (r=1) 1466 (r>1)
	W: 41 (r=1) 1466 (r>1)
Mapping LAMMPS atom type #1(Cu) -> ACE species type #0

dump phonopy all custom 1 force id type x y z fx fy fz
dump_modify phonopy format line "%d %d %15.8f %15.8f %15.8f %15.8f %15.8f %15.8f"
run 0
WARNING: No fixes with time integration, atoms won't move (../verlet.cpp:60)
Neighbor list info ...
  update: every = 1 steps, delay = 0 steps, check = yes
  max neighbors/atom: 2000, page size: 100000
  master list distance cutoff = 9
  ghost atom cutoff = 9
  binsize = 4.5, bins = 4 2 2
  1 neighbor lists, perpetual/occasional/extra = 1 0 0
  (1) pair pace, perpetual
      attributes: full, newton on
      pair build: full/bin/atomonly
      stencil: full/bin/3d
      bin: standard
Per MPI rank memory allocation (min/avg/max) = 4.375 | 4.375 | 4.375 Mbytes
   Step          Temp          E_pair         E_mol          TotEng         Press     
         0   0             -100.15923      0             -100.15923      1249.3503    
Loop time of 2.5275e-06 on 4 procs for 0 steps with 27 atoms

138.5% CPU use with 4 MPI tasks x no OpenMP threads

MPI task timing breakdown:
Section |  min time  |  avg time  |  max time  |%varavg| %total
---------------------------------------------------------------
Pair    | 0          | 0          | 0          |   0.0 |  0.00
Neigh   | 0          | 0          | 0          |   0.0 |  0.00
Comm    | 0          | 0          | 0          |   0.0 |  0.00
Output  | 0          | 0          | 0          |   0.0 |  0.00
Modify  | 0          | 0          | 0          |   0.0 |  0.00
Other   |            | 2.527e-06  |            |       |100.00

Nlocal:           6.75 ave          12 max           3 min
Histogram: 1 0 0 2 0 0 0 0 0 1
Nghost:        1193.25 ave        1197 max        1188 min
Histogram: 1 0 0 0 0 0 2 0 0 1
Neighs:              0 ave           0 max           0 min
Histogram: 4 0 0 0 0 0 0 0 0 0
FullNghs:         1674 ave        2976 max         744 min
Histogram: 1 0 0 2 0 0 0 0 0 1

Total # of neighbors = 6696
Ave neighs/atom = 248
Neighbor list builds = 0
Dangerous builds = 0
Total wall time: 0:00:03
