phonopy:
  version: "2.19.1"
  calculator: lammps
  frequency_unit_conversion_factor: 15.633302
  symmetry_tolerance: 1.00000e-05
  configuration:
    cell_filename: "Punitcell"
    create_displacements: ".true."
    dim: "3 3 3"
    calculator: "lammps"

physical_unit:
  atomic_mass: "AMU"
  length: "angstrom"
  force_constants: "eV/angstrom^2"

space_group:
  type: "Fm-3m"
  number: 225
  Hall_symbol: "-F 4 2 3"

supercell_matrix:
- [   3,   0,   0 ]
- [   0,   3,   0 ]
- [   0,   0,   3 ]

primitive_cell:
  lattice:
  - [     2.567335016878709,     0.000000000000000,     0.000000000000000 ] # a
  - [     1.283667508439355,     2.223377344642311,     0.000000000000000 ] # b
  - [     1.283667508439355,     0.741125781547437,     2.096220263377492 ] # c
  points:
  - symbol: Cu # 1
    coordinates: [  0.000000000000000,  0.000000000000000,  0.000000000000000 ]
    mass: 63.546000
  reciprocal_lattice: # without 2pi
  - [     0.389508962961823,    -0.224883104617781,    -0.159016368249516 ] # a*
  - [     0.000000000000000,     0.449766209235561,    -0.159016368249516 ] # b*
  - [     0.000000000000000,     0.000000000000000,     0.477049104748549 ] # c*

unit_cell:
  lattice:
  - [     2.567335016878709,     0.000000000000000,     0.000000000000000 ] # a
  - [     1.283667508439355,     2.223377344642312,     0.000000000000000 ] # b
  - [     1.283667508439355,     0.741125781547437,     2.096220263377492 ] # c
  points:
  - symbol: Cu # 1
    coordinates: [  0.000000000000000,  0.000000000000000,  0.000000000000000 ]
    mass: 63.546000
    reduced_to: 1

supercell:
  lattice:
  - [     7.702005050636126,     0.000000000000000,     0.000000000000000 ] # a
  - [     3.851002525318064,     6.670132033926935,     0.000000000000000 ] # b
  - [     3.851002525318064,     2.223377344642312,     6.288660790132475 ] # c
  points:
  - symbol: Cu # 1
    coordinates: [  0.000000000000000,  0.000000000000000,  0.000000000000000 ]
    mass: 63.546000
    reduced_to: 1
  - symbol: Cu # 2
    coordinates: [  0.333333333333333,  0.000000000000000,  0.000000000000000 ]
    mass: 63.546000
    reduced_to: 1
  - symbol: Cu # 3
    coordinates: [  0.666666666666667,  0.000000000000000,  0.000000000000000 ]
    mass: 63.546000
    reduced_to: 1
  - symbol: Cu # 4
    coordinates: [  0.000000000000000,  0.333333333333333,  0.000000000000000 ]
    mass: 63.546000
    reduced_to: 1
  - symbol: Cu # 5
    coordinates: [  0.333333333333333,  0.333333333333333,  0.000000000000000 ]
    mass: 63.546000
    reduced_to: 1
  - symbol: Cu # 6
    coordinates: [  0.666666666666667,  0.333333333333333,  0.000000000000000 ]
    mass: 63.546000
    reduced_to: 1
  - symbol: Cu # 7
    coordinates: [  0.000000000000000,  0.666666666666667,  0.000000000000000 ]
    mass: 63.546000
    reduced_to: 1
  - symbol: Cu # 8
    coordinates: [  0.333333333333333,  0.666666666666667,  0.000000000000000 ]
    mass: 63.546000
    reduced_to: 1
  - symbol: Cu # 9
    coordinates: [  0.666666666666667,  0.666666666666667,  0.000000000000000 ]
    mass: 63.546000
    reduced_to: 1
  - symbol: Cu # 10
    coordinates: [  0.000000000000000,  0.000000000000000,  0.333333333333333 ]
    mass: 63.546000
    reduced_to: 1
  - symbol: Cu # 11
    coordinates: [  0.333333333333333,  0.000000000000000,  0.333333333333333 ]
    mass: 63.546000
    reduced_to: 1
  - symbol: Cu # 12
    coordinates: [  0.666666666666667,  0.000000000000000,  0.333333333333333 ]
    mass: 63.546000
    reduced_to: 1
  - symbol: Cu # 13
    coordinates: [  0.000000000000000,  0.333333333333333,  0.333333333333333 ]
    mass: 63.546000
    reduced_to: 1
  - symbol: Cu # 14
    coordinates: [  0.333333333333333,  0.333333333333333,  0.333333333333333 ]
    mass: 63.546000
    reduced_to: 1
  - symbol: Cu # 15
    coordinates: [  0.666666666666667,  0.333333333333333,  0.333333333333333 ]
    mass: 63.546000
    reduced_to: 1
  - symbol: Cu # 16
    coordinates: [  0.000000000000000,  0.666666666666667,  0.333333333333333 ]
    mass: 63.546000
    reduced_to: 1
  - symbol: Cu # 17
    coordinates: [  0.333333333333333,  0.666666666666667,  0.333333333333333 ]
    mass: 63.546000
    reduced_to: 1
  - symbol: Cu # 18
    coordinates: [  0.666666666666667,  0.666666666666667,  0.333333333333333 ]
    mass: 63.546000
    reduced_to: 1
  - symbol: Cu # 19
    coordinates: [  0.000000000000000,  0.000000000000000,  0.666666666666667 ]
    mass: 63.546000
    reduced_to: 1
  - symbol: Cu # 20
    coordinates: [  0.333333333333333,  0.000000000000000,  0.666666666666667 ]
    mass: 63.546000
    reduced_to: 1
  - symbol: Cu # 21
    coordinates: [  0.666666666666667,  0.000000000000000,  0.666666666666667 ]
    mass: 63.546000
    reduced_to: 1
  - symbol: Cu # 22
    coordinates: [  0.000000000000000,  0.333333333333333,  0.666666666666667 ]
    mass: 63.546000
    reduced_to: 1
  - symbol: Cu # 23
    coordinates: [  0.333333333333333,  0.333333333333333,  0.666666666666667 ]
    mass: 63.546000
    reduced_to: 1
  - symbol: Cu # 24
    coordinates: [  0.666666666666667,  0.333333333333333,  0.666666666666667 ]
    mass: 63.546000
    reduced_to: 1
  - symbol: Cu # 25
    coordinates: [  0.000000000000000,  0.666666666666667,  0.666666666666667 ]
    mass: 63.546000
    reduced_to: 1
  - symbol: Cu # 26
    coordinates: [  0.333333333333333,  0.666666666666667,  0.666666666666667 ]
    mass: 63.546000
    reduced_to: 1
  - symbol: Cu # 27
    coordinates: [  0.666666666666667,  0.666666666666667,  0.666666666666667 ]
    mass: 63.546000
    reduced_to: 1

displacements:
- atom:    1
  displacement:
    [   0.0100000000000000,  0.0000000000000000,  0.0000000000000000 ]
