#

1 atoms
1 atom types

0.0 2.5673350168787086 xlo xhi
0.0 2.2233773446423117 ylo yhi
0.0 2.0962202633774916 zlo zhi

1.2836675084393545 1.2836675084393545 0.7411257815474372 xy xz yz


Atom Type Labels

1 Cu


Atoms

1 Cu 0.0 0.0 0.0