#

27 atoms
1 atom types

0.0 7.702005050636126 xlo xhi
0.0 6.670132033926933 ylo yhi
0.0 6.288660790132475 zlo zhi

3.851002525318065 3.8510025253180644 2.2233773446423113 xy xz yz


Atom Type Labels

1 Cu


Atoms

1 Cu 0.0 0.0 0.0
2 Cu 2.5673350168787086 0.0 0.0
3 Cu 5.134670033757417 0.0 0.0
4 Cu 1.283667508439355 2.223377344642311 0.0
5 Cu 3.8510025253180635 2.223377344642311 0.0
6 Cu 6.418337542196772 2.223377344642311 0.0
7 Cu 2.56733501687871 4.446754689284622 0.0
8 Cu 5.134670033757418 4.446754689284622 0.0
9 Cu 7.702005050636127 4.446754689284622 0.0
10 Cu 1.2836675084393547 0.741125781547437 2.0962202633774916
11 Cu 3.8510025253180635 0.741125781547437 2.0962202633774916
12 Cu 6.418337542196772 0.741125781547437 2.0962202633774916
13 Cu 2.56733501687871 2.964503126189748 2.0962202633774916
14 Cu 5.134670033757418 2.964503126189748 2.0962202633774916
15 Cu 7.702005050636127 2.964503126189748 2.0962202633774916
16 Cu 3.851002525318065 5.1878804708320585 2.0962202633774916
17 Cu 6.418337542196773 5.1878804708320585 2.0962202633774916
18 Cu 8.985672559075482 5.1878804708320585 2.0962202633774916
19 Cu 2.5673350168787095 1.482251563094874 4.192440526754983
20 Cu 5.134670033757418 1.482251563094874 4.192440526754983
21 Cu 7.702005050636127 1.482251563094874 4.192440526754983
22 Cu 3.8510025253180644 3.705628907737185 4.192440526754983
23 Cu 6.418337542196773 3.705628907737185 4.192440526754983
24 Cu 8.985672559075482 3.705628907737185 4.192440526754983
25 Cu 5.13467003375742 5.929006252379496 4.192440526754983
26 Cu 7.702005050636128 5.929006252379496 4.192440526754983
27 Cu 10.269340067514836 5.929006252379496 4.192440526754983