# LAMMPS data file written by OVITO Pro 3.7.5
32 atoms
2 atom types
0.0 7.65251 xlo xhi
0.0 7.65251 ylo yhi
0.0 7.65251 zlo zhi

Masses

1 63.546  # Cu
2 183.84  # W

Atoms  # atomic

1 1 1.9131275 0.0 5.7393825
2 1 0.0 1.9131275 5.7393825
3 1 1.9131275 5.7393825 0.0
4 1 1.9131275 3.826255 1.9131275
5 1 0.0 5.7393825 1.9131275
6 1 1.9131275 3.826255 5.7393825
7 1 0.0 5.7393825 5.7393825
8 1 5.7393825 1.9131275 0.0
9 1 5.7393825 0.0 1.9131275
10 1 3.826255 1.9131275 1.9131275
11 1 5.7393825 1.9131275 3.826255
12 1 5.7393825 0.0 5.7393825
13 1 3.826255 1.9131275 5.7393825
14 1 5.7393825 5.7393825 0.0
15 1 5.7393825 3.826255 1.9131275
16 1 3.826255 5.7393825 1.9131275
17 1 5.7393825 5.7393825 3.826255
18 1 5.7393825 3.826255 5.7393825
19 1 3.826255 5.7393825 5.7393825
20 2 3.826255 0.0 3.826255
21 2 3.826255 3.826255 0.0
22 2 0.0 3.826255 3.826255
23 2 0.0 0.0 0.0
24 2 0.0 0.0 3.826255
25 2 3.826255 3.826255 3.826255
26 2 3.826255 0.0 0.0
27 2 0.0 3.826255 0.0
28 2 1.9131275 1.9131275 0.0
29 2 1.9131275 5.7393825 3.826255
30 2 1.9131275 1.9131275 3.826255
31 2 1.9131275 0.0 1.9131275
32 2 0.0 1.9131275 1.9131275

Velocities

1 0.0 0.0 0.0
2 0.0 0.0 0.0
3 0.0 0.0 0.0
4 0.0 0.0 0.0
5 0.0 0.0 0.0
6 0.0 0.0 0.0
7 0.0 0.0 0.0
8 0.0 0.0 0.0
9 0.0 0.0 0.0
10 0.0 0.0 0.0
11 0.0 0.0 0.0
12 0.0 0.0 0.0
13 0.0 0.0 0.0
14 0.0 0.0 0.0
15 0.0 0.0 0.0
16 0.0 0.0 0.0
17 0.0 0.0 0.0
18 0.0 0.0 0.0
19 0.0 0.0 0.0
20 0.0 0.0 0.0
21 0.0 0.0 0.0
22 0.0 0.0 0.0
23 0.0 0.0 0.0
24 0.0 0.0 0.0
25 0.0 0.0 0.0
26 0.0 0.0 0.0
27 0.0 0.0 0.0
28 0.0 0.0 0.0
29 0.0 0.0 0.0
30 0.0 0.0 0.0
31 0.0 0.0 0.0
32 0.0 0.0 0.0
