# LAMMPS data file written by OVITO Pro 3.7.5
32 atoms
2 atom types
0.0 8.06160305 xlo xhi
0.0 8.06160305 ylo yhi
0.0 8.06160305 zlo zhi

Masses

1 63.546  # Cu
2 183.84  # W

Atoms  # atomic

1 1 4.030801525 4.030801525 4.030801525
2 2 2.0154007625 2.0154007625 0.0
3 2 2.0154007625 0.0 2.0154007625
4 2 0.0 2.0154007625 2.0154007625
5 2 2.0154007625 2.0154007625 4.030801525
6 2 2.0154007625 0.0 6.0462022875
7 2 0.0 2.0154007625 6.0462022875
8 2 2.0154007625 6.0462022875 0.0
9 2 2.0154007625 4.030801525 2.0154007625
10 2 0.0 6.0462022875 2.0154007625
11 2 2.0154007625 6.0462022875 4.030801525
12 2 2.0154007625 4.030801525 6.0462022875
13 2 0.0 6.0462022875 6.0462022875
14 2 6.0462022875 2.0154007625 0.0
15 2 6.0462022875 0.0 2.0154007625
16 2 4.030801525 2.0154007625 2.0154007625
17 2 6.0462022875 2.0154007625 4.030801525
18 2 6.0462022875 0.0 6.0462022875
19 2 4.030801525 2.0154007625 6.0462022875
20 2 6.0462022875 6.0462022875 0.0
21 2 6.0462022875 4.030801525 2.0154007625
22 2 4.030801525 6.0462022875 2.0154007625
23 2 6.0462022875 6.0462022875 4.030801525
24 2 6.0462022875 4.030801525 6.0462022875
25 2 4.030801525 6.0462022875 6.0462022875
26 2 0.0 0.0 0.0
27 2 0.0 0.0 4.030801525
28 2 0.0 4.030801525 0.0
29 2 0.0 4.030801525 4.030801525
30 2 4.030801525 0.0 0.0
31 2 4.030801525 0.0 4.030801525
32 2 4.030801525 4.030801525 0.0

Velocities

1 0.0 0.0 0.0
2 0.0 0.0 0.0
3 0.0 0.0 0.0
4 0.0 0.0 0.0
5 0.0 0.0 0.0
6 0.0 0.0 0.0
7 0.0 0.0 0.0
8 0.0 0.0 0.0
9 0.0 0.0 0.0
10 0.0 0.0 0.0
11 0.0 0.0 0.0
12 0.0 0.0 0.0
13 0.0 0.0 0.0
14 0.0 0.0 0.0
15 0.0 0.0 0.0
16 0.0 0.0 0.0
17 0.0 0.0 0.0
18 0.0 0.0 0.0
19 0.0 0.0 0.0
20 0.0 0.0 0.0
21 0.0 0.0 0.0
22 0.0 0.0 0.0
23 0.0 0.0 0.0
24 0.0 0.0 0.0
25 0.0 0.0 0.0
26 0.0 0.0 0.0
27 0.0 0.0 0.0
28 0.0 0.0 0.0
29 0.0 0.0 0.0
30 0.0 0.0 0.0
31 0.0 0.0 0.0
32 0.0 0.0 0.0
