# LAMMPS data file written by OVITO Pro 3.7.5
32 atoms
2 atom types
0.0 7.761099476 xlo xhi
0.0 7.761099476 ylo yhi
0.0 7.761099476 zlo zhi

Masses

1 63.546  # Cu
2 183.84  # W

Atoms  # atomic

1 1 3.880549738 0.0 3.880549738
2 1 3.880549738 3.880549738 0.0
3 1 0.0 3.880549738 3.880549738
4 1 0.0 0.0 0.0
5 1 0.0 0.0 3.880549738
6 1 3.880549738 3.880549738 3.880549738
7 1 3.880549738 0.0 0.0
8 1 0.0 3.880549738 0.0
9 1 1.940274869 1.940274869 0.0
10 1 1.940274869 5.820824607 3.880549738
11 1 1.940274869 1.940274869 3.880549738
12 1 1.940274869 0.0 1.940274869
13 1 0.0 1.940274869 1.940274869
14 1 1.940274869 0.0 5.820824607
15 2 0.0 1.940274869 5.820824607
16 2 1.940274869 5.820824607 0.0
17 2 1.940274869 3.880549738 1.940274869
18 2 0.0 5.820824607 1.940274869
19 2 1.940274869 3.880549738 5.820824607
20 2 0.0 5.820824607 5.820824607
21 2 5.820824607 1.940274869 0.0
22 2 5.820824607 0.0 1.940274869
23 2 3.880549738 1.940274869 1.940274869
24 2 5.820824607 1.940274869 3.880549738
25 2 5.820824607 0.0 5.820824607
26 2 3.880549738 1.940274869 5.820824607
27 2 5.820824607 5.820824607 0.0
28 2 5.820824607 3.880549738 1.940274869
29 2 3.880549738 5.820824607 1.940274869
30 2 5.820824607 5.820824607 3.880549738
31 2 5.820824607 3.880549738 5.820824607
32 2 3.880549738 5.820824607 5.820824607

Velocities

1 0.0 0.0 0.0
2 0.0 0.0 0.0
3 0.0 0.0 0.0
4 0.0 0.0 0.0
5 0.0 0.0 0.0
6 0.0 0.0 0.0
7 0.0 0.0 0.0
8 0.0 0.0 0.0
9 0.0 0.0 0.0
10 0.0 0.0 0.0
11 0.0 0.0 0.0
12 0.0 0.0 0.0
13 0.0 0.0 0.0
14 0.0 0.0 0.0
15 0.0 0.0 0.0
16 0.0 0.0 0.0
17 0.0 0.0 0.0
18 0.0 0.0 0.0
19 0.0 0.0 0.0
20 0.0 0.0 0.0
21 0.0 0.0 0.0
22 0.0 0.0 0.0
23 0.0 0.0 0.0
24 0.0 0.0 0.0
25 0.0 0.0 0.0
26 0.0 0.0 0.0
27 0.0 0.0 0.0
28 0.0 0.0 0.0
29 0.0 0.0 0.0
30 0.0 0.0 0.0
31 0.0 0.0 0.0
32 0.0 0.0 0.0
