# LAMMPS data file written by OVITO Pro 3.7.5
32 atoms
2 atom types
0.0 7.6148 xlo xhi
0.0 7.6148 ylo yhi
0.0 7.6148 zlo zhi

Masses

1 63.546  # Cu
2 183.84  # W

Atoms  # atomic

1 1 0.0 1.9037 1.9037
2 1 1.9037 0.0 5.7111
3 1 0.0 1.9037 5.7111
4 1 1.9037 5.7111 0.0
5 1 1.9037 3.8074 1.9037
6 1 0.0 5.7111 1.9037
7 1 1.9037 3.8074 5.7111
8 1 0.0 5.7111 5.7111
9 1 5.7111 1.9037 0.0
10 1 5.7111 0.0 1.9037
11 1 3.8074 1.9037 1.9037
12 1 5.7111 1.9037 3.8074
13 1 5.7111 0.0 5.7111
14 1 3.8074 1.9037 5.7111
15 1 5.7111 5.7111 0.0
16 1 5.7111 3.8074 1.9037
17 1 3.8074 5.7111 1.9037
18 1 5.7111 5.7111 3.8074
19 1 5.7111 3.8074 5.7111
20 1 3.8074 5.7111 5.7111
21 2 3.8074 0.0 3.8074
22 2 3.8074 3.8074 0.0
23 2 0.0 3.8074 3.8074
24 2 0.0 0.0 0.0
25 2 0.0 0.0 3.8074
26 2 3.8074 3.8074 3.8074
27 2 3.8074 0.0 0.0
28 2 0.0 3.8074 0.0
29 2 1.9037 1.9037 0.0
30 2 1.9037 5.7111 3.8074
31 2 1.9037 1.9037 3.8074
32 2 1.9037 0.0 1.9037

Velocities

1 0.0 0.0 0.0
2 0.0 0.0 0.0
3 0.0 0.0 0.0
4 0.0 0.0 0.0
5 0.0 0.0 0.0
6 0.0 0.0 0.0
7 0.0 0.0 0.0
8 0.0 0.0 0.0
9 0.0 0.0 0.0
10 0.0 0.0 0.0
11 0.0 0.0 0.0
12 0.0 0.0 0.0
13 0.0 0.0 0.0
14 0.0 0.0 0.0
15 0.0 0.0 0.0
16 0.0 0.0 0.0
17 0.0 0.0 0.0
18 0.0 0.0 0.0
19 0.0 0.0 0.0
20 0.0 0.0 0.0
21 0.0 0.0 0.0
22 0.0 0.0 0.0
23 0.0 0.0 0.0
24 0.0 0.0 0.0
25 0.0 0.0 0.0
26 0.0 0.0 0.0
27 0.0 0.0 0.0
28 0.0 0.0 0.0
29 0.0 0.0 0.0
30 0.0 0.0 0.0
31 0.0 0.0 0.0
32 0.0 0.0 0.0
