# LAMMPS data file written by OVITO Pro 3.7.5
32 atoms
2 atom types
0.0 7.5405 xlo xhi
0.0 7.5405 ylo yhi
0.0 7.5405 zlo zhi

Masses

1 63.546  # Cu
2 183.84  # W

Atoms  # atomic

1 1 1.885125 5.655375 3.77025
2 1 1.885125 1.885125 3.77025
3 1 1.885125 0.0 1.885125
4 1 0.0 1.885125 1.885125
5 1 1.885125 0.0 5.655375
6 1 0.0 1.885125 5.655375
7 1 1.885125 5.655375 0.0
8 1 1.885125 3.77025 1.885125
9 1 0.0 5.655375 1.885125
10 1 1.885125 3.77025 5.655375
11 1 0.0 5.655375 5.655375
12 1 5.655375 1.885125 0.0
13 1 5.655375 0.0 1.885125
14 1 3.77025 1.885125 1.885125
15 1 5.655375 1.885125 3.77025
16 1 5.655375 0.0 5.655375
17 1 3.77025 1.885125 5.655375
18 1 5.655375 5.655375 0.0
19 1 5.655375 3.77025 1.885125
20 1 3.77025 5.655375 1.885125
21 1 5.655375 5.655375 3.77025
22 1 5.655375 3.77025 5.655375
23 1 3.77025 5.655375 5.655375
24 2 3.77025 0.0 3.77025
25 2 3.77025 3.77025 0.0
26 2 0.0 3.77025 3.77025
27 2 0.0 0.0 0.0
28 2 0.0 0.0 3.77025
29 2 3.77025 3.77025 3.77025
30 2 3.77025 0.0 0.0
31 2 0.0 3.77025 0.0
32 2 1.885125 1.885125 0.0

Velocities

1 0.0 0.0 0.0
2 0.0 0.0 0.0
3 0.0 0.0 0.0
4 0.0 0.0 0.0
5 0.0 0.0 0.0
6 0.0 0.0 0.0
7 0.0 0.0 0.0
8 0.0 0.0 0.0
9 0.0 0.0 0.0
10 0.0 0.0 0.0
11 0.0 0.0 0.0
12 0.0 0.0 0.0
13 0.0 0.0 0.0
14 0.0 0.0 0.0
15 0.0 0.0 0.0
16 0.0 0.0 0.0
17 0.0 0.0 0.0
18 0.0 0.0 0.0
19 0.0 0.0 0.0
20 0.0 0.0 0.0
21 0.0 0.0 0.0
22 0.0 0.0 0.0
23 0.0 0.0 0.0
24 0.0 0.0 0.0
25 0.0 0.0 0.0
26 0.0 0.0 0.0
27 0.0 0.0 0.0
28 0.0 0.0 0.0
29 0.0 0.0 0.0
30 0.0 0.0 0.0
31 0.0 0.0 0.0
32 0.0 0.0 0.0
