# LAMMPS data file written by OVITO Pro 3.7.5
32 atoms
2 atom types
0.0 7.49712 xlo xhi
0.0 7.49712 ylo yhi
0.0 7.49712 zlo zhi

Masses

1 63.546  # Cu
2 183.84  # W

Atoms  # atomic

1 1 0.0 3.74856 0.0
2 1 1.87428 1.87428 0.0
3 1 1.87428 0.0 1.87428
4 1 0.0 1.87428 1.87428
5 1 1.87428 1.87428 3.74856
6 1 1.87428 0.0 5.62284
7 1 0.0 1.87428 5.62284
8 1 1.87428 5.62284 0.0
9 1 1.87428 3.74856 1.87428
10 1 0.0 5.62284 1.87428
11 1 1.87428 5.62284 3.74856
12 1 1.87428 3.74856 5.62284
13 1 0.0 5.62284 5.62284
14 1 5.62284 1.87428 0.0
15 1 5.62284 0.0 1.87428
16 1 3.74856 1.87428 1.87428
17 1 5.62284 1.87428 3.74856
18 1 5.62284 0.0 5.62284
19 1 3.74856 1.87428 5.62284
20 1 5.62284 5.62284 0.0
21 1 5.62284 3.74856 1.87428
22 1 3.74856 5.62284 1.87428
23 1 5.62284 5.62284 3.74856
24 1 5.62284 3.74856 5.62284
25 1 3.74856 5.62284 5.62284
26 2 3.74856 0.0 3.74856
27 2 3.74856 3.74856 0.0
28 2 0.0 3.74856 3.74856
29 2 0.0 0.0 0.0
30 2 0.0 0.0 3.74856
31 2 3.74856 3.74856 3.74856
32 2 3.74856 0.0 0.0

Velocities

1 0.0 0.0 0.0
2 0.0 0.0 0.0
3 0.0 0.0 0.0
4 0.0 0.0 0.0
5 0.0 0.0 0.0
6 0.0 0.0 0.0
7 0.0 0.0 0.0
8 0.0 0.0 0.0
9 0.0 0.0 0.0
10 0.0 0.0 0.0
11 0.0 0.0 0.0
12 0.0 0.0 0.0
13 0.0 0.0 0.0
14 0.0 0.0 0.0
15 0.0 0.0 0.0
16 0.0 0.0 0.0
17 0.0 0.0 0.0
18 0.0 0.0 0.0
19 0.0 0.0 0.0
20 0.0 0.0 0.0
21 0.0 0.0 0.0
22 0.0 0.0 0.0
23 0.0 0.0 0.0
24 0.0 0.0 0.0
25 0.0 0.0 0.0
26 0.0 0.0 0.0
27 0.0 0.0 0.0
28 0.0 0.0 0.0
29 0.0 0.0 0.0
30 0.0 0.0 0.0
31 0.0 0.0 0.0
32 0.0 0.0 0.0
