# LAMMPS data file written by OVITO Pro 3.7.5
32 atoms
2 atom types
0.0 7.4181 xlo xhi
0.0 7.4181 ylo yhi
0.0 7.4181 zlo zhi

Masses

1 63.546  # Cu
2 183.84  # W

Atoms  # atomic

1 1 3.70905 3.70905 3.70905
2 1 1.854525 1.854525 0.0
3 1 1.854525 0.0 1.854525
4 1 0.0 1.854525 1.854525
5 1 1.854525 1.854525 3.70905
6 1 1.854525 0.0 5.563575
7 1 0.0 1.854525 5.563575
8 1 1.854525 5.563575 0.0
9 1 1.854525 3.70905 1.854525
10 1 0.0 5.563575 1.854525
11 1 1.854525 5.563575 3.70905
12 1 1.854525 3.70905 5.563575
13 1 0.0 5.563575 5.563575
14 1 5.563575 1.854525 0.0
15 1 5.563575 0.0 1.854525
16 1 3.70905 1.854525 1.854525
17 1 5.563575 1.854525 3.70905
18 1 5.563575 0.0 5.563575
19 1 3.70905 1.854525 5.563575
20 1 5.563575 5.563575 0.0
21 1 5.563575 3.70905 1.854525
22 1 3.70905 5.563575 1.854525
23 1 5.563575 5.563575 3.70905
24 1 5.563575 3.70905 5.563575
25 1 3.70905 5.563575 5.563575
26 1 0.0 0.0 3.70905
27 1 0.0 3.70905 0.0
28 1 3.70905 0.0 0.0
29 2 3.70905 0.0 3.70905
30 2 3.70905 3.70905 0.0
31 2 0.0 3.70905 3.70905
32 2 0.0 0.0 0.0

Velocities

1 0.0 0.0 0.0
2 0.0 0.0 0.0
3 0.0 0.0 0.0
4 0.0 0.0 0.0
5 0.0 0.0 0.0
6 0.0 0.0 0.0
7 0.0 0.0 0.0
8 0.0 0.0 0.0
9 0.0 0.0 0.0
10 0.0 0.0 0.0
11 0.0 0.0 0.0
12 0.0 0.0 0.0
13 0.0 0.0 0.0
14 0.0 0.0 0.0
15 0.0 0.0 0.0
16 0.0 0.0 0.0
17 0.0 0.0 0.0
18 0.0 0.0 0.0
19 0.0 0.0 0.0
20 0.0 0.0 0.0
21 0.0 0.0 0.0
22 0.0 0.0 0.0
23 0.0 0.0 0.0
24 0.0 0.0 0.0
25 0.0 0.0 0.0
26 0.0 0.0 0.0
27 0.0 0.0 0.0
28 0.0 0.0 0.0
29 0.0 0.0 0.0
30 0.0 0.0 0.0
31 0.0 0.0 0.0
32 0.0 0.0 0.0
