# LAMMPS data file written by OVITO Pro 3.7.5
32 atoms
2 atom types
0.0 8.042362874 xlo xhi
0.0 8.042362874 ylo yhi
0.0 8.042362874 zlo zhi

Masses

1 63.546  # Cu
2 183.84  # W

Atoms  # atomic

1 1 0.0 0.0 0.0
2 1 4.021181437 4.021181437 4.021181437
3 2 2.0105907185 2.0105907185 0.0
4 2 2.0105907185 0.0 2.0105907185
5 2 0.0 2.0105907185 2.0105907185
6 2 2.0105907185 2.0105907185 4.021181437
7 2 2.0105907185 0.0 6.0317721555
8 2 0.0 2.0105907185 6.0317721555
9 2 2.0105907185 6.0317721555 0.0
10 2 2.0105907185 4.021181437 2.0105907185
11 2 0.0 6.0317721555 2.0105907185
12 2 2.0105907185 6.0317721555 4.021181437
13 2 2.0105907185 4.021181437 6.0317721555
14 2 0.0 6.0317721555 6.0317721555
15 2 6.0317721555 2.0105907185 0.0
16 2 6.0317721555 0.0 2.0105907185
17 2 4.021181437 2.0105907185 2.0105907185
18 2 6.0317721555 2.0105907185 4.021181437
19 2 6.0317721555 0.0 6.0317721555
20 2 4.021181437 2.0105907185 6.0317721555
21 2 6.0317721555 6.0317721555 0.0
22 2 6.0317721555 4.021181437 2.0105907185
23 2 4.021181437 6.0317721555 2.0105907185
24 2 6.0317721555 6.0317721555 4.021181437
25 2 6.0317721555 4.021181437 6.0317721555
26 2 4.021181437 6.0317721555 6.0317721555
27 2 0.0 0.0 4.021181437
28 2 0.0 4.021181437 0.0
29 2 0.0 4.021181437 4.021181437
30 2 4.021181437 0.0 0.0
31 2 4.021181437 0.0 4.021181437
32 2 4.021181437 4.021181437 0.0

Velocities

1 0.0 0.0 0.0
2 0.0 0.0 0.0
3 0.0 0.0 0.0
4 0.0 0.0 0.0
5 0.0 0.0 0.0
6 0.0 0.0 0.0
7 0.0 0.0 0.0
8 0.0 0.0 0.0
9 0.0 0.0 0.0
10 0.0 0.0 0.0
11 0.0 0.0 0.0
12 0.0 0.0 0.0
13 0.0 0.0 0.0
14 0.0 0.0 0.0
15 0.0 0.0 0.0
16 0.0 0.0 0.0
17 0.0 0.0 0.0
18 0.0 0.0 0.0
19 0.0 0.0 0.0
20 0.0 0.0 0.0
21 0.0 0.0 0.0
22 0.0 0.0 0.0
23 0.0 0.0 0.0
24 0.0 0.0 0.0
25 0.0 0.0 0.0
26 0.0 0.0 0.0
27 0.0 0.0 0.0
28 0.0 0.0 0.0
29 0.0 0.0 0.0
30 0.0 0.0 0.0
31 0.0 0.0 0.0
32 0.0 0.0 0.0
