# LAMMPS data file written by OVITO Pro 3.7.5
32 atoms
2 atom types
0.0 7.308564 xlo xhi
0.0 7.308564 ylo yhi
0.0 7.308564 zlo zhi

Masses

1 63.546  # Cu
2 183.84  # W

Atoms  # atomic

1 1 1.827141 1.827141 0.0
2 1 1.827141 0.0 1.827141
3 1 0.0 1.827141 1.827141
4 1 1.827141 1.827141 3.654282
5 1 1.827141 0.0 5.481423
6 1 0.0 1.827141 5.481423
7 1 1.827141 5.481423 0.0
8 1 1.827141 3.654282 1.827141
9 1 0.0 5.481423 1.827141
10 1 1.827141 5.481423 3.654282
11 1 1.827141 3.654282 5.481423
12 1 0.0 5.481423 5.481423
13 1 5.481423 1.827141 0.0
14 1 5.481423 0.0 1.827141
15 1 3.654282 1.827141 1.827141
16 1 5.481423 1.827141 3.654282
17 1 5.481423 0.0 5.481423
18 1 3.654282 1.827141 5.481423
19 1 5.481423 5.481423 0.0
20 1 5.481423 3.654282 1.827141
21 1 3.654282 5.481423 1.827141
22 1 5.481423 5.481423 3.654282
23 1 5.481423 3.654282 5.481423
24 1 3.654282 5.481423 5.481423
25 1 0.0 0.0 0.0
26 1 0.0 0.0 3.654282
27 1 0.0 3.654282 0.0
28 1 0.0 3.654282 3.654282
29 1 3.654282 0.0 0.0
30 1 3.654282 0.0 3.654282
31 1 3.654282 3.654282 0.0
32 2 3.654282 3.654282 3.654282

Velocities

1 0.0 0.0 0.0
2 0.0 0.0 0.0
3 0.0 0.0 0.0
4 0.0 0.0 0.0
5 0.0 0.0 0.0
6 0.0 0.0 0.0
7 0.0 0.0 0.0
8 0.0 0.0 0.0
9 0.0 0.0 0.0
10 0.0 0.0 0.0
11 0.0 0.0 0.0
12 0.0 0.0 0.0
13 0.0 0.0 0.0
14 0.0 0.0 0.0
15 0.0 0.0 0.0
16 0.0 0.0 0.0
17 0.0 0.0 0.0
18 0.0 0.0 0.0
19 0.0 0.0 0.0
20 0.0 0.0 0.0
21 0.0 0.0 0.0
22 0.0 0.0 0.0
23 0.0 0.0 0.0
24 0.0 0.0 0.0
25 0.0 0.0 0.0
26 0.0 0.0 0.0
27 0.0 0.0 0.0
28 0.0 0.0 0.0
29 0.0 0.0 0.0
30 0.0 0.0 0.0
31 0.0 0.0 0.0
32 0.0 0.0 0.0
