# LAMMPS data file written by OVITO Pro 3.7.5
4 atoms
2 atom types
0.0 3.82963823 xlo xhi
0.0 3.82963823 ylo yhi
0.0 3.82963823 zlo zhi

Masses

1 63.546  # Cu
2 183.84  # W

Atoms  # atomic

1 1 0.0 0.0 0.0
2 1 1.914819115 1.914819115 0.0
3 2 1.914819115 0.0 1.914819115
4 2 0.0 1.914819115 1.914819115
