# LAMMPS data file written by OVITO Pro 3.7.5
32 atoms
2 atom types
0.0 7.895943159 xlo xhi
0.0 7.895943159 ylo yhi
0.0 7.895943159 zlo zhi

Masses

1 63.546  # Cu
2 183.84  # W

Atoms  # atomic

1 1 3.9479715795 0.0 3.9479715795
2 1 3.9479715795 3.9479715795 0.0
3 1 0.0 3.9479715795 3.9479715795
4 1 0.0 0.0 0.0
5 1 0.0 0.0 3.9479715795
6 1 3.9479715795 3.9479715795 3.9479715795
7 1 3.9479715795 0.0 0.0
8 2 0.0 3.9479715795 0.0
9 2 1.9739857898 1.9739857898 0.0
10 2 1.9739857898 0.0 1.9739857898
11 2 0.0 1.9739857898 1.9739857898
12 2 1.9739857898 1.9739857898 3.9479715795
13 2 1.9739857898 0.0 5.9219573693
14 2 0.0 1.9739857898 5.9219573693
15 2 1.9739857898 5.9219573693 0.0
16 2 1.9739857898 3.9479715795 1.9739857898
17 2 0.0 5.9219573693 1.9739857898
18 2 1.9739857898 5.9219573693 3.9479715795
19 2 1.9739857898 3.9479715795 5.9219573693
20 2 0.0 5.9219573693 5.9219573693
21 2 5.9219573693 1.9739857898 0.0
22 2 5.9219573693 0.0 1.9739857898
23 2 3.9479715795 1.9739857898 1.9739857898
24 2 5.9219573693 1.9739857898 3.9479715795
25 2 5.9219573693 0.0 5.9219573693
26 2 3.9479715795 1.9739857898 5.9219573693
27 2 5.9219573693 5.9219573693 0.0
28 2 5.9219573693 3.9479715795 1.9739857898
29 2 3.9479715795 5.9219573693 1.9739857898
30 2 5.9219573693 5.9219573693 3.9479715795
31 2 5.9219573693 3.9479715795 5.9219573693
32 2 3.9479715795 5.9219573693 5.9219573693

Velocities

1 0.0 0.0 0.0
2 0.0 0.0 0.0
3 0.0 0.0 0.0
4 0.0 0.0 0.0
5 0.0 0.0 0.0
6 0.0 0.0 0.0
7 0.0 0.0 0.0
8 0.0 0.0 0.0
9 0.0 0.0 0.0
10 0.0 0.0 0.0
11 0.0 0.0 0.0
12 0.0 0.0 0.0
13 0.0 0.0 0.0
14 0.0 0.0 0.0
15 0.0 0.0 0.0
16 0.0 0.0 0.0
17 0.0 0.0 0.0
18 0.0 0.0 0.0
19 0.0 0.0 0.0
20 0.0 0.0 0.0
21 0.0 0.0 0.0
22 0.0 0.0 0.0
23 0.0 0.0 0.0
24 0.0 0.0 0.0
25 0.0 0.0 0.0
26 0.0 0.0 0.0
27 0.0 0.0 0.0
28 0.0 0.0 0.0
29 0.0 0.0 0.0
30 0.0 0.0 0.0
31 0.0 0.0 0.0
32 0.0 0.0 0.0
