# LAMMPS data file written by OVITO Pro 3.7.5
32 atoms
2 atom types
0.0 8.013549567 xlo xhi
0.0 8.013549567 ylo yhi
0.0 8.013549567 zlo zhi

Masses

1 63.546  # Cu
2 183.84  # W

Atoms  # atomic

1 1 4.0067747835 0.0 4.0067747835
2 1 4.0067747835 4.0067747835 0.0
3 1 0.0 4.0067747835 4.0067747835
4 2 0.0 0.0 0.0
5 2 4.0067747835 4.0067747835 4.0067747835
6 2 2.0033873918 2.0033873918 0.0
7 2 2.0033873918 0.0 2.0033873918
8 2 0.0 2.0033873918 2.0033873918
9 2 2.0033873918 2.0033873918 4.0067747835
10 2 2.0033873918 0.0 6.0101621753
11 2 0.0 2.0033873918 6.0101621753
12 2 2.0033873918 6.0101621753 0.0
13 2 2.0033873918 4.0067747835 2.0033873918
14 2 0.0 6.0101621753 2.0033873918
15 2 2.0033873918 6.0101621753 4.0067747835
16 2 2.0033873918 4.0067747835 6.0101621753
17 2 0.0 6.0101621753 6.0101621753
18 2 6.0101621753 2.0033873918 0.0
19 2 6.0101621753 0.0 2.0033873918
20 2 4.0067747835 2.0033873918 2.0033873918
21 2 6.0101621753 2.0033873918 4.0067747835
22 2 6.0101621753 0.0 6.0101621753
23 2 4.0067747835 2.0033873918 6.0101621753
24 2 6.0101621753 6.0101621753 0.0
25 2 6.0101621753 4.0067747835 2.0033873918
26 2 4.0067747835 6.0101621753 2.0033873918
27 2 6.0101621753 6.0101621753 4.0067747835
28 2 6.0101621753 4.0067747835 6.0101621753
29 2 4.0067747835 6.0101621753 6.0101621753
30 2 0.0 0.0 4.0067747835
31 2 0.0 4.0067747835 0.0
32 2 4.0067747835 0.0 0.0

Velocities

1 0.0 0.0 0.0
2 0.0 0.0 0.0
3 0.0 0.0 0.0
4 0.0 0.0 0.0
5 0.0 0.0 0.0
6 0.0 0.0 0.0
7 0.0 0.0 0.0
8 0.0 0.0 0.0
9 0.0 0.0 0.0
10 0.0 0.0 0.0
11 0.0 0.0 0.0
12 0.0 0.0 0.0
13 0.0 0.0 0.0
14 0.0 0.0 0.0
15 0.0 0.0 0.0
16 0.0 0.0 0.0
17 0.0 0.0 0.0
18 0.0 0.0 0.0
19 0.0 0.0 0.0
20 0.0 0.0 0.0
21 0.0 0.0 0.0
22 0.0 0.0 0.0
23 0.0 0.0 0.0
24 0.0 0.0 0.0
25 0.0 0.0 0.0
26 0.0 0.0 0.0
27 0.0 0.0 0.0
28 0.0 0.0 0.0
29 0.0 0.0 0.0
30 0.0 0.0 0.0
31 0.0 0.0 0.0
32 0.0 0.0 0.0
