# LAMMPS data file written by OVITO Pro 3.7.5
32 atoms
2 atom types
0.0 7.46978 xlo xhi
0.0 7.46978 ylo yhi
0.0 7.46978 zlo zhi

Masses

1 63.546  # Cu
2 183.84  # W

Atoms  # atomic

1 1 3.73489 0.0 0.0
2 1 0.0 3.73489 0.0
3 1 1.867445 1.867445 0.0
4 1 1.867445 0.0 1.867445
5 1 0.0 1.867445 1.867445
6 1 1.867445 1.867445 3.73489
7 1 1.867445 0.0 5.602335
8 1 0.0 1.867445 5.602335
9 1 1.867445 5.602335 0.0
10 1 1.867445 3.73489 1.867445
11 1 0.0 5.602335 1.867445
12 1 1.867445 5.602335 3.73489
13 1 1.867445 3.73489 5.602335
14 1 0.0 5.602335 5.602335
15 1 5.602335 1.867445 0.0
16 1 5.602335 0.0 1.867445
17 1 3.73489 1.867445 1.867445
18 1 5.602335 1.867445 3.73489
19 1 5.602335 0.0 5.602335
20 1 3.73489 1.867445 5.602335
21 1 5.602335 5.602335 0.0
22 1 5.602335 3.73489 1.867445
23 1 3.73489 5.602335 1.867445
24 1 5.602335 5.602335 3.73489
25 1 5.602335 3.73489 5.602335
26 1 3.73489 5.602335 5.602335
27 2 3.73489 0.0 3.73489
28 2 3.73489 3.73489 0.0
29 2 0.0 3.73489 3.73489
30 2 0.0 0.0 0.0
31 2 0.0 0.0 3.73489
32 2 3.73489 3.73489 3.73489

Velocities

1 0.0 0.0 0.0
2 0.0 0.0 0.0
3 0.0 0.0 0.0
4 0.0 0.0 0.0
5 0.0 0.0 0.0
6 0.0 0.0 0.0
7 0.0 0.0 0.0
8 0.0 0.0 0.0
9 0.0 0.0 0.0
10 0.0 0.0 0.0
11 0.0 0.0 0.0
12 0.0 0.0 0.0
13 0.0 0.0 0.0
14 0.0 0.0 0.0
15 0.0 0.0 0.0
16 0.0 0.0 0.0
17 0.0 0.0 0.0
18 0.0 0.0 0.0
19 0.0 0.0 0.0
20 0.0 0.0 0.0
21 0.0 0.0 0.0
22 0.0 0.0 0.0
23 0.0 0.0 0.0
24 0.0 0.0 0.0
25 0.0 0.0 0.0
26 0.0 0.0 0.0
27 0.0 0.0 0.0
28 0.0 0.0 0.0
29 0.0 0.0 0.0
30 0.0 0.0 0.0
31 0.0 0.0 0.0
32 0.0 0.0 0.0
