# LAMMPS data file written by OVITO Pro 3.7.5
32 atoms
2 atom types
0.0 7.802299268 xlo xhi
0.0 7.802299268 ylo yhi
0.0 7.802299268 zlo zhi

Masses

1 63.546  # Cu
2 183.84  # W

Atoms  # atomic

1 1 3.901149634 0.0 3.901149634
2 1 3.901149634 3.901149634 0.0
3 1 0.0 3.901149634 3.901149634
4 1 0.0 0.0 0.0
5 1 0.0 0.0 3.901149634
6 1 3.901149634 3.901149634 3.901149634
7 1 3.901149634 0.0 0.0
8 1 0.0 3.901149634 0.0
9 1 1.950574817 1.950574817 0.0
10 1 1.950574817 5.851724451 3.901149634
11 1 1.950574817 1.950574817 3.901149634
12 2 1.950574817 0.0 1.950574817
13 2 0.0 1.950574817 1.950574817
14 2 1.950574817 0.0 5.851724451
15 2 0.0 1.950574817 5.851724451
16 2 1.950574817 5.851724451 0.0
17 2 1.950574817 3.901149634 1.950574817
18 2 0.0 5.851724451 1.950574817
19 2 1.950574817 3.901149634 5.851724451
20 2 0.0 5.851724451 5.851724451
21 2 5.851724451 1.950574817 0.0
22 2 5.851724451 0.0 1.950574817
23 2 3.901149634 1.950574817 1.950574817
24 2 5.851724451 1.950574817 3.901149634
25 2 5.851724451 0.0 5.851724451
26 2 3.901149634 1.950574817 5.851724451
27 2 5.851724451 5.851724451 0.0
28 2 5.851724451 3.901149634 1.950574817
29 2 3.901149634 5.851724451 1.950574817
30 2 5.851724451 5.851724451 3.901149634
31 2 5.851724451 3.901149634 5.851724451
32 2 3.901149634 5.851724451 5.851724451

Velocities

1 0.0 0.0 0.0
2 0.0 0.0 0.0
3 0.0 0.0 0.0
4 0.0 0.0 0.0
5 0.0 0.0 0.0
6 0.0 0.0 0.0
7 0.0 0.0 0.0
8 0.0 0.0 0.0
9 0.0 0.0 0.0
10 0.0 0.0 0.0
11 0.0 0.0 0.0
12 0.0 0.0 0.0
13 0.0 0.0 0.0
14 0.0 0.0 0.0
15 0.0 0.0 0.0
16 0.0 0.0 0.0
17 0.0 0.0 0.0
18 0.0 0.0 0.0
19 0.0 0.0 0.0
20 0.0 0.0 0.0
21 0.0 0.0 0.0
22 0.0 0.0 0.0
23 0.0 0.0 0.0
24 0.0 0.0 0.0
25 0.0 0.0 0.0
26 0.0 0.0 0.0
27 0.0 0.0 0.0
28 0.0 0.0 0.0
29 0.0 0.0 0.0
30 0.0 0.0 0.0
31 0.0 0.0 0.0
32 0.0 0.0 0.0
