# LAMMPS data file written by OVITO Pro 3.7.5
32 atoms
2 atom types
0.0 7.3816 xlo xhi
0.0 7.3816 ylo yhi
0.0 7.3816 zlo zhi

Masses

1 63.546  # Cu
2 183.84  # W

Atoms  # atomic

1 1 0.0 0.0 0.0
2 1 3.6908 3.6908 3.6908
3 1 1.8454 1.8454 0.0
4 1 1.8454 0.0 1.8454
5 1 0.0 1.8454 1.8454
6 1 1.8454 1.8454 3.6908
7 1 1.8454 0.0 5.5362
8 1 0.0 1.8454 5.5362
9 1 1.8454 5.5362 0.0
10 1 1.8454 3.6908 1.8454
11 1 0.0 5.5362 1.8454
12 1 1.8454 5.5362 3.6908
13 1 1.8454 3.6908 5.5362
14 1 0.0 5.5362 5.5362
15 1 5.5362 1.8454 0.0
16 1 5.5362 0.0 1.8454
17 1 3.6908 1.8454 1.8454
18 1 5.5362 1.8454 3.6908
19 1 5.5362 0.0 5.5362
20 1 3.6908 1.8454 5.5362
21 1 5.5362 5.5362 0.0
22 1 5.5362 3.6908 1.8454
23 1 3.6908 5.5362 1.8454
24 1 5.5362 5.5362 3.6908
25 1 5.5362 3.6908 5.5362
26 1 3.6908 5.5362 5.5362
27 1 0.0 0.0 3.6908
28 1 0.0 3.6908 0.0
29 1 3.6908 0.0 0.0
30 2 3.6908 0.0 3.6908
31 2 3.6908 3.6908 0.0
32 2 0.0 3.6908 3.6908

Velocities

1 0.0 0.0 0.0
2 0.0 0.0 0.0
3 0.0 0.0 0.0
4 0.0 0.0 0.0
5 0.0 0.0 0.0
6 0.0 0.0 0.0
7 0.0 0.0 0.0
8 0.0 0.0 0.0
9 0.0 0.0 0.0
10 0.0 0.0 0.0
11 0.0 0.0 0.0
12 0.0 0.0 0.0
13 0.0 0.0 0.0
14 0.0 0.0 0.0
15 0.0 0.0 0.0
16 0.0 0.0 0.0
17 0.0 0.0 0.0
18 0.0 0.0 0.0
19 0.0 0.0 0.0
20 0.0 0.0 0.0
21 0.0 0.0 0.0
22 0.0 0.0 0.0
23 0.0 0.0 0.0
24 0.0 0.0 0.0
25 0.0 0.0 0.0
26 0.0 0.0 0.0
27 0.0 0.0 0.0
28 0.0 0.0 0.0
29 0.0 0.0 0.0
30 0.0 0.0 0.0
31 0.0 0.0 0.0
32 0.0 0.0 0.0
