# LAMMPS data file written by OVITO Pro 3.7.5
32 atoms
2 atom types
0.0 7.775897322 xlo xhi
0.0 7.775897322 ylo yhi
0.0 7.775897322 zlo zhi

Masses

1 63.546  # Cu
2 183.84  # W

Atoms  # atomic

1 1 3.887948661 0.0 3.887948661
2 1 3.887948661 3.887948661 0.0
3 1 0.0 3.887948661 3.887948661
4 1 0.0 0.0 0.0
5 1 0.0 0.0 3.887948661
6 1 3.887948661 3.887948661 3.887948661
7 1 3.887948661 0.0 0.0
8 1 0.0 3.887948661 0.0
9 1 1.9439743305 1.9439743305 0.0
10 1 1.9439743305 5.8319229915 3.887948661
11 1 1.9439743305 1.9439743305 3.887948661
12 1 1.9439743305 0.0 1.9439743305
13 1 0.0 1.9439743305 1.9439743305
14 2 1.9439743305 0.0 5.8319229915
15 2 0.0 1.9439743305 5.8319229915
16 2 1.9439743305 5.8319229915 0.0
17 2 1.9439743305 3.887948661 1.9439743305
18 2 0.0 5.8319229915 1.9439743305
19 2 1.9439743305 3.887948661 5.8319229915
20 2 0.0 5.8319229915 5.8319229915
21 2 5.8319229915 1.9439743305 0.0
22 2 5.8319229915 0.0 1.9439743305
23 2 3.887948661 1.9439743305 1.9439743305
24 2 5.8319229915 1.9439743305 3.887948661
25 2 5.8319229915 0.0 5.8319229915
26 2 3.887948661 1.9439743305 5.8319229915
27 2 5.8319229915 5.8319229915 0.0
28 2 5.8319229915 3.887948661 1.9439743305
29 2 3.887948661 5.8319229915 1.9439743305
30 2 5.8319229915 5.8319229915 3.887948661
31 2 5.8319229915 3.887948661 5.8319229915
32 2 3.887948661 5.8319229915 5.8319229915

Velocities

1 0.0 0.0 0.0
2 0.0 0.0 0.0
3 0.0 0.0 0.0
4 0.0 0.0 0.0
5 0.0 0.0 0.0
6 0.0 0.0 0.0
7 0.0 0.0 0.0
8 0.0 0.0 0.0
9 0.0 0.0 0.0
10 0.0 0.0 0.0
11 0.0 0.0 0.0
12 0.0 0.0 0.0
13 0.0 0.0 0.0
14 0.0 0.0 0.0
15 0.0 0.0 0.0
16 0.0 0.0 0.0
17 0.0 0.0 0.0
18 0.0 0.0 0.0
19 0.0 0.0 0.0
20 0.0 0.0 0.0
21 0.0 0.0 0.0
22 0.0 0.0 0.0
23 0.0 0.0 0.0
24 0.0 0.0 0.0
25 0.0 0.0 0.0
26 0.0 0.0 0.0
27 0.0 0.0 0.0
28 0.0 0.0 0.0
29 0.0 0.0 0.0
30 0.0 0.0 0.0
31 0.0 0.0 0.0
32 0.0 0.0 0.0
