# LAMMPS data file written by OVITO Pro 3.7.5
32 atoms
2 atom types
0.0 7.842838038 xlo xhi
0.0 7.842838038 ylo yhi
0.0 7.842838038 zlo zhi

Masses

1 63.546  # Cu
2 183.84  # W

Atoms  # atomic

1 1 3.921419019 0.0 3.921419019
2 1 3.921419019 3.921419019 0.0
3 1 0.0 3.921419019 3.921419019
4 1 0.0 0.0 0.0
5 1 0.0 0.0 3.921419019
6 1 3.921419019 3.921419019 3.921419019
7 1 3.921419019 0.0 0.0
8 1 0.0 3.921419019 0.0
9 1 1.9607095095 1.9607095095 0.0
10 2 1.9607095095 5.8821285285 3.921419019
11 2 1.9607095095 1.9607095095 3.921419019
12 2 1.9607095095 0.0 1.9607095095
13 2 0.0 1.9607095095 1.9607095095
14 2 1.9607095095 0.0 5.8821285285
15 2 0.0 1.9607095095 5.8821285285
16 2 1.9607095095 5.8821285285 0.0
17 2 1.9607095095 3.921419019 1.9607095095
18 2 0.0 5.8821285285 1.9607095095
19 2 1.9607095095 3.921419019 5.8821285285
20 2 0.0 5.8821285285 5.8821285285
21 2 5.8821285285 1.9607095095 0.0
22 2 5.8821285285 0.0 1.9607095095
23 2 3.921419019 1.9607095095 1.9607095095
24 2 5.8821285285 1.9607095095 3.921419019
25 2 5.8821285285 0.0 5.8821285285
26 2 3.921419019 1.9607095095 5.8821285285
27 2 5.8821285285 5.8821285285 0.0
28 2 5.8821285285 3.921419019 1.9607095095
29 2 3.921419019 5.8821285285 1.9607095095
30 2 5.8821285285 5.8821285285 3.921419019
31 2 5.8821285285 3.921419019 5.8821285285
32 2 3.921419019 5.8821285285 5.8821285285

Velocities

1 0.0 0.0 0.0
2 0.0 0.0 0.0
3 0.0 0.0 0.0
4 0.0 0.0 0.0
5 0.0 0.0 0.0
6 0.0 0.0 0.0
7 0.0 0.0 0.0
8 0.0 0.0 0.0
9 0.0 0.0 0.0
10 0.0 0.0 0.0
11 0.0 0.0 0.0
12 0.0 0.0 0.0
13 0.0 0.0 0.0
14 0.0 0.0 0.0
15 0.0 0.0 0.0
16 0.0 0.0 0.0
17 0.0 0.0 0.0
18 0.0 0.0 0.0
19 0.0 0.0 0.0
20 0.0 0.0 0.0
21 0.0 0.0 0.0
22 0.0 0.0 0.0
23 0.0 0.0 0.0
24 0.0 0.0 0.0
25 0.0 0.0 0.0
26 0.0 0.0 0.0
27 0.0 0.0 0.0
28 0.0 0.0 0.0
29 0.0 0.0 0.0
30 0.0 0.0 0.0
31 0.0 0.0 0.0
32 0.0 0.0 0.0
