# LAMMPS data file written by OVITO Pro 3.7.5
32 atoms
2 atom types
0.0 7.4435 xlo xhi
0.0 7.4435 ylo yhi
0.0 7.4435 zlo zhi

Masses

1 63.546  # Cu
2 183.84  # W

Atoms  # atomic

1 1 3.72175 3.72175 3.72175
2 1 3.72175 0.0 0.0
3 1 0.0 3.72175 0.0
4 1 1.860875 1.860875 0.0
5 1 1.860875 0.0 1.860875
6 1 0.0 1.860875 1.860875
7 1 1.860875 1.860875 3.72175
8 1 1.860875 0.0 5.582625
9 1 0.0 1.860875 5.582625
10 1 1.860875 5.582625 0.0
11 1 1.860875 3.72175 1.860875
12 1 0.0 5.582625 1.860875
13 1 1.860875 5.582625 3.72175
14 1 1.860875 3.72175 5.582625
15 1 0.0 5.582625 5.582625
16 1 5.582625 1.860875 0.0
17 1 5.582625 0.0 1.860875
18 1 3.72175 1.860875 1.860875
19 1 5.582625 1.860875 3.72175
20 1 5.582625 0.0 5.582625
21 1 3.72175 1.860875 5.582625
22 1 5.582625 5.582625 0.0
23 1 5.582625 3.72175 1.860875
24 1 3.72175 5.582625 1.860875
25 1 5.582625 5.582625 3.72175
26 1 5.582625 3.72175 5.582625
27 1 3.72175 5.582625 5.582625
28 2 3.72175 0.0 3.72175
29 2 3.72175 3.72175 0.0
30 2 0.0 3.72175 3.72175
31 2 0.0 0.0 0.0
32 2 0.0 0.0 3.72175

Velocities

1 0.0 0.0 0.0
2 0.0 0.0 0.0
3 0.0 0.0 0.0
4 0.0 0.0 0.0
5 0.0 0.0 0.0
6 0.0 0.0 0.0
7 0.0 0.0 0.0
8 0.0 0.0 0.0
9 0.0 0.0 0.0
10 0.0 0.0 0.0
11 0.0 0.0 0.0
12 0.0 0.0 0.0
13 0.0 0.0 0.0
14 0.0 0.0 0.0
15 0.0 0.0 0.0
16 0.0 0.0 0.0
17 0.0 0.0 0.0
18 0.0 0.0 0.0
19 0.0 0.0 0.0
20 0.0 0.0 0.0
21 0.0 0.0 0.0
22 0.0 0.0 0.0
23 0.0 0.0 0.0
24 0.0 0.0 0.0
25 0.0 0.0 0.0
26 0.0 0.0 0.0
27 0.0 0.0 0.0
28 0.0 0.0 0.0
29 0.0 0.0 0.0
30 0.0 0.0 0.0
31 0.0 0.0 0.0
32 0.0 0.0 0.0
