# LAMMPS data file written by OVITO Pro 3.7.5
32 atoms
2 atom types
0.0 7.982303454 xlo xhi
0.0 7.982303454 ylo yhi
0.0 7.982303454 zlo zhi

Masses

1 63.546  # Cu
2 183.84  # W

Atoms  # atomic

1 1 3.991151727 0.0 3.991151727
2 1 3.991151727 3.991151727 0.0
3 1 0.0 3.991151727 3.991151727
4 1 0.0 0.0 0.0
5 2 3.991151727 3.991151727 3.991151727
6 2 1.9955758635 1.9955758635 0.0
7 2 1.9955758635 0.0 1.9955758635
8 2 0.0 1.9955758635 1.9955758635
9 2 1.9955758635 1.9955758635 3.991151727
10 2 1.9955758635 0.0 5.9867275905
11 2 0.0 1.9955758635 5.9867275905
12 2 1.9955758635 5.9867275905 0.0
13 2 1.9955758635 3.991151727 1.9955758635
14 2 0.0 5.9867275905 1.9955758635
15 2 1.9955758635 5.9867275905 3.991151727
16 2 1.9955758635 3.991151727 5.9867275905
17 2 0.0 5.9867275905 5.9867275905
18 2 5.9867275905 1.9955758635 0.0
19 2 5.9867275905 0.0 1.9955758635
20 2 3.991151727 1.9955758635 1.9955758635
21 2 5.9867275905 1.9955758635 3.991151727
22 2 5.9867275905 0.0 5.9867275905
23 2 3.991151727 1.9955758635 5.9867275905
24 2 5.9867275905 5.9867275905 0.0
25 2 5.9867275905 3.991151727 1.9955758635
26 2 3.991151727 5.9867275905 1.9955758635
27 2 5.9867275905 5.9867275905 3.991151727
28 2 5.9867275905 3.991151727 5.9867275905
29 2 3.991151727 5.9867275905 5.9867275905
30 2 0.0 0.0 3.991151727
31 2 0.0 3.991151727 0.0
32 2 3.991151727 0.0 0.0

Velocities

1 0.0 0.0 0.0
2 0.0 0.0 0.0
3 0.0 0.0 0.0
4 0.0 0.0 0.0
5 0.0 0.0 0.0
6 0.0 0.0 0.0
7 0.0 0.0 0.0
8 0.0 0.0 0.0
9 0.0 0.0 0.0
10 0.0 0.0 0.0
11 0.0 0.0 0.0
12 0.0 0.0 0.0
13 0.0 0.0 0.0
14 0.0 0.0 0.0
15 0.0 0.0 0.0
16 0.0 0.0 0.0
17 0.0 0.0 0.0
18 0.0 0.0 0.0
19 0.0 0.0 0.0
20 0.0 0.0 0.0
21 0.0 0.0 0.0
22 0.0 0.0 0.0
23 0.0 0.0 0.0
24 0.0 0.0 0.0
25 0.0 0.0 0.0
26 0.0 0.0 0.0
27 0.0 0.0 0.0
28 0.0 0.0 0.0
29 0.0 0.0 0.0
30 0.0 0.0 0.0
31 0.0 0.0 0.0
32 0.0 0.0 0.0
