# LAMMPS data file written by OVITO Pro 3.7.5
32 atoms
2 atom types
0.0 7.958651384 xlo xhi
0.0 7.958651384 ylo yhi
0.0 7.958651384 zlo zhi

Masses

1 63.546  # Cu
2 183.84  # W

Atoms  # atomic

1 1 3.979325692 0.0 3.979325692
2 1 3.979325692 3.979325692 0.0
3 1 0.0 3.979325692 3.979325692
4 1 0.0 0.0 0.0
5 1 0.0 0.0 3.979325692
6 2 3.979325692 3.979325692 3.979325692
7 2 3.979325692 0.0 0.0
8 2 0.0 3.979325692 0.0
9 2 1.989662846 1.989662846 0.0
10 2 1.989662846 0.0 1.989662846
11 2 0.0 1.989662846 1.989662846
12 2 1.989662846 1.989662846 3.979325692
13 2 1.989662846 0.0 5.968988538
14 2 0.0 1.989662846 5.968988538
15 2 1.989662846 5.968988538 0.0
16 2 1.989662846 3.979325692 1.989662846
17 2 0.0 5.968988538 1.989662846
18 2 1.989662846 5.968988538 3.979325692
19 2 1.989662846 3.979325692 5.968988538
20 2 0.0 5.968988538 5.968988538
21 2 5.968988538 1.989662846 0.0
22 2 5.968988538 0.0 1.989662846
23 2 3.979325692 1.989662846 1.989662846
24 2 5.968988538 1.989662846 3.979325692
25 2 5.968988538 0.0 5.968988538
26 2 3.979325692 1.989662846 5.968988538
27 2 5.968988538 5.968988538 0.0
28 2 5.968988538 3.979325692 1.989662846
29 2 3.979325692 5.968988538 1.989662846
30 2 5.968988538 5.968988538 3.979325692
31 2 5.968988538 3.979325692 5.968988538
32 2 3.979325692 5.968988538 5.968988538

Velocities

1 0.0 0.0 0.0
2 0.0 0.0 0.0
3 0.0 0.0 0.0
4 0.0 0.0 0.0
5 0.0 0.0 0.0
6 0.0 0.0 0.0
7 0.0 0.0 0.0
8 0.0 0.0 0.0
9 0.0 0.0 0.0
10 0.0 0.0 0.0
11 0.0 0.0 0.0
12 0.0 0.0 0.0
13 0.0 0.0 0.0
14 0.0 0.0 0.0
15 0.0 0.0 0.0
16 0.0 0.0 0.0
17 0.0 0.0 0.0
18 0.0 0.0 0.0
19 0.0 0.0 0.0
20 0.0 0.0 0.0
21 0.0 0.0 0.0
22 0.0 0.0 0.0
23 0.0 0.0 0.0
24 0.0 0.0 0.0
25 0.0 0.0 0.0
26 0.0 0.0 0.0
27 0.0 0.0 0.0
28 0.0 0.0 0.0
29 0.0 0.0 0.0
30 0.0 0.0 0.0
31 0.0 0.0 0.0
32 0.0 0.0 0.0
