# LAMMPS data file written by OVITO Pro 3.7.5
32 atoms
2 atom types
0.0 7.744118257 xlo xhi
0.0 7.744118257 ylo yhi
0.0 7.744118257 zlo zhi

Masses

1 63.546  # Cu
2 183.84  # W

Atoms  # atomic

1 1 3.8720591285 0.0 3.8720591285
2 1 3.8720591285 3.8720591285 0.0
3 1 0.0 3.8720591285 3.8720591285
4 1 0.0 0.0 0.0
5 1 0.0 0.0 3.8720591285
6 1 3.8720591285 3.8720591285 3.8720591285
7 1 3.8720591285 0.0 0.0
8 1 0.0 3.8720591285 0.0
9 1 1.9360295643 1.9360295643 0.0
10 1 1.9360295643 5.8080886928 3.8720591285
11 1 1.9360295643 1.9360295643 3.8720591285
12 1 1.9360295643 0.0 1.9360295643
13 1 0.0 1.9360295643 1.9360295643
14 1 1.9360295643 0.0 5.8080886928
15 1 0.0 1.9360295643 5.8080886928
16 2 1.9360295643 5.8080886928 0.0
17 2 1.9360295643 3.8720591285 1.9360295643
18 2 0.0 5.8080886928 1.9360295643
19 2 1.9360295643 3.8720591285 5.8080886928
20 2 0.0 5.8080886928 5.8080886928
21 2 5.8080886928 1.9360295643 0.0
22 2 5.8080886928 0.0 1.9360295643
23 2 3.8720591285 1.9360295643 1.9360295643
24 2 5.8080886928 1.9360295643 3.8720591285
25 2 5.8080886928 0.0 5.8080886928
26 2 3.8720591285 1.9360295643 5.8080886928
27 2 5.8080886928 5.8080886928 0.0
28 2 5.8080886928 3.8720591285 1.9360295643
29 2 3.8720591285 5.8080886928 1.9360295643
30 2 5.8080886928 5.8080886928 3.8720591285
31 2 5.8080886928 3.8720591285 5.8080886928
32 2 3.8720591285 5.8080886928 5.8080886928

Velocities

1 0.0 0.0 0.0
2 0.0 0.0 0.0
3 0.0 0.0 0.0
4 0.0 0.0 0.0
5 0.0 0.0 0.0
6 0.0 0.0 0.0
7 0.0 0.0 0.0
8 0.0 0.0 0.0
9 0.0 0.0 0.0
10 0.0 0.0 0.0
11 0.0 0.0 0.0
12 0.0 0.0 0.0
13 0.0 0.0 0.0
14 0.0 0.0 0.0
15 0.0 0.0 0.0
16 0.0 0.0 0.0
17 0.0 0.0 0.0
18 0.0 0.0 0.0
19 0.0 0.0 0.0
20 0.0 0.0 0.0
21 0.0 0.0 0.0
22 0.0 0.0 0.0
23 0.0 0.0 0.0
24 0.0 0.0 0.0
25 0.0 0.0 0.0
26 0.0 0.0 0.0
27 0.0 0.0 0.0
28 0.0 0.0 0.0
29 0.0 0.0 0.0
30 0.0 0.0 0.0
31 0.0 0.0 0.0
32 0.0 0.0 0.0
