# LAMMPS data file written by OVITO Pro 3.7.5
32 atoms
2 atom types
0.0 7.562374 xlo xhi
0.0 7.562374 ylo yhi
0.0 7.562374 zlo zhi

Masses

1 63.546  # Cu
2 183.84  # W

Atoms  # atomic

1 1 1.8905935 1.8905935 3.781187
2 1 1.8905935 0.0 1.8905935
3 1 0.0 1.8905935 1.8905935
4 1 1.8905935 0.0 5.6717805
5 1 0.0 1.8905935 5.6717805
6 1 1.8905935 5.6717805 0.0
7 1 1.8905935 3.781187 1.8905935
8 1 0.0 5.6717805 1.8905935
9 1 1.8905935 3.781187 5.6717805
10 1 0.0 5.6717805 5.6717805
11 1 5.6717805 1.8905935 0.0
12 1 5.6717805 0.0 1.8905935
13 1 3.781187 1.8905935 1.8905935
14 1 5.6717805 1.8905935 3.781187
15 1 5.6717805 0.0 5.6717805
16 1 3.781187 1.8905935 5.6717805
17 1 5.6717805 5.6717805 0.0
18 1 5.6717805 3.781187 1.8905935
19 1 3.781187 5.6717805 1.8905935
20 1 5.6717805 5.6717805 3.781187
21 1 5.6717805 3.781187 5.6717805
22 1 3.781187 5.6717805 5.6717805
23 2 3.781187 0.0 3.781187
24 2 3.781187 3.781187 0.0
25 2 0.0 3.781187 3.781187
26 2 0.0 0.0 0.0
27 2 0.0 0.0 3.781187
28 2 3.781187 3.781187 3.781187
29 2 3.781187 0.0 0.0
30 2 0.0 3.781187 0.0
31 2 1.8905935 1.8905935 0.0
32 2 1.8905935 5.6717805 3.781187

Velocities

1 0.0 0.0 0.0
2 0.0 0.0 0.0
3 0.0 0.0 0.0
4 0.0 0.0 0.0
5 0.0 0.0 0.0
6 0.0 0.0 0.0
7 0.0 0.0 0.0
8 0.0 0.0 0.0
9 0.0 0.0 0.0
10 0.0 0.0 0.0
11 0.0 0.0 0.0
12 0.0 0.0 0.0
13 0.0 0.0 0.0
14 0.0 0.0 0.0
15 0.0 0.0 0.0
16 0.0 0.0 0.0
17 0.0 0.0 0.0
18 0.0 0.0 0.0
19 0.0 0.0 0.0
20 0.0 0.0 0.0
21 0.0 0.0 0.0
22 0.0 0.0 0.0
23 0.0 0.0 0.0
24 0.0 0.0 0.0
25 0.0 0.0 0.0
26 0.0 0.0 0.0
27 0.0 0.0 0.0
28 0.0 0.0 0.0
29 0.0 0.0 0.0
30 0.0 0.0 0.0
31 0.0 0.0 0.0
32 0.0 0.0 0.0
