# LAMMPS data file written by OVITO Pro 3.7.5
4 atoms
2 atom types
0.0 3.76 xlo xhi
0.0 3.76 ylo yhi
0.0 3.76 zlo zhi

Masses

1 63.546  # Cu
2 183.84  # W

Atoms  # atomic

1 1 1.88 1.88 0.0
2 1 1.88 0.0 1.88
3 1 0.0 1.88 1.88
4 2 0.0 0.0 0.0
