# LAMMPS data file written by OVITO Pro 3.7.5
4 atoms
2 atom types
0.0 3.92788 xlo xhi
0.0 3.92788 ylo yhi
0.0 3.92788 zlo zhi

Masses

1 63.546  # Cu
2 183.84  # W

Atoms  # atomic

1 1 0.0 0.0 0.0
2 2 1.96394 1.96394 0.0
3 2 1.96394 0.0 1.96394
4 2 0.0 1.96394 1.96394
