# LAMMPS data file written by OVITO Pro 3.7.5
32 atoms
2 atom types
0.0 7.68337 xlo xhi
0.0 7.68337 ylo yhi
0.0 7.68337 zlo zhi

Masses

1 63.546  # Cu
2 183.84  # W

Atoms  # atomic

1 1 0.0 1.9208425 5.7625275
2 1 1.9208425 5.7625275 0.0
3 1 1.9208425 3.841685 1.9208425
4 1 0.0 5.7625275 1.9208425
5 1 1.9208425 3.841685 5.7625275
6 1 0.0 5.7625275 5.7625275
7 1 5.7625275 1.9208425 0.0
8 1 5.7625275 0.0 1.9208425
9 1 3.841685 1.9208425 1.9208425
10 1 5.7625275 1.9208425 3.841685
11 1 5.7625275 0.0 5.7625275
12 1 3.841685 1.9208425 5.7625275
13 1 5.7625275 5.7625275 0.0
14 1 5.7625275 3.841685 1.9208425
15 1 3.841685 5.7625275 1.9208425
16 1 5.7625275 5.7625275 3.841685
17 1 5.7625275 3.841685 5.7625275
18 1 3.841685 5.7625275 5.7625275
19 2 3.841685 0.0 3.841685
20 2 3.841685 3.841685 0.0
21 2 0.0 3.841685 3.841685
22 2 0.0 0.0 0.0
23 2 0.0 0.0 3.841685
24 2 3.841685 3.841685 3.841685
25 2 3.841685 0.0 0.0
26 2 0.0 3.841685 0.0
27 2 1.9208425 1.9208425 0.0
28 2 1.9208425 5.7625275 3.841685
29 2 1.9208425 1.9208425 3.841685
30 2 1.9208425 0.0 1.9208425
31 2 0.0 1.9208425 1.9208425
32 2 1.9208425 0.0 5.7625275

Velocities

1 0.0 0.0 0.0
2 0.0 0.0 0.0
3 0.0 0.0 0.0
4 0.0 0.0 0.0
5 0.0 0.0 0.0
6 0.0 0.0 0.0
7 0.0 0.0 0.0
8 0.0 0.0 0.0
9 0.0 0.0 0.0
10 0.0 0.0 0.0
11 0.0 0.0 0.0
12 0.0 0.0 0.0
13 0.0 0.0 0.0
14 0.0 0.0 0.0
15 0.0 0.0 0.0
16 0.0 0.0 0.0
17 0.0 0.0 0.0
18 0.0 0.0 0.0
19 0.0 0.0 0.0
20 0.0 0.0 0.0
21 0.0 0.0 0.0
22 0.0 0.0 0.0
23 0.0 0.0 0.0
24 0.0 0.0 0.0
25 0.0 0.0 0.0
26 0.0 0.0 0.0
27 0.0 0.0 0.0
28 0.0 0.0 0.0
29 0.0 0.0 0.0
30 0.0 0.0 0.0
31 0.0 0.0 0.0
32 0.0 0.0 0.0
