# LAMMPS data file written by OVITO Pro 3.7.5
32 atoms
2 atom types
0.0 7.71565 xlo xhi
0.0 7.71565 ylo yhi
0.0 7.71565 zlo zhi

Masses

1 63.546  # Cu
2 183.84  # W

Atoms  # atomic

1 1 1.9289125 5.7867375 0.0
2 1 1.9289125 3.857825 1.9289125
3 1 0.0 5.7867375 1.9289125
4 1 1.9289125 3.857825 5.7867375
5 1 0.0 5.7867375 5.7867375
6 1 5.7867375 1.9289125 0.0
7 1 5.7867375 0.0 1.9289125
8 1 3.857825 1.9289125 1.9289125
9 1 5.7867375 1.9289125 3.857825
10 1 5.7867375 0.0 5.7867375
11 1 3.857825 1.9289125 5.7867375
12 1 5.7867375 5.7867375 0.0
13 1 5.7867375 3.857825 1.9289125
14 1 3.857825 5.7867375 1.9289125
15 1 5.7867375 5.7867375 3.857825
16 1 5.7867375 3.857825 5.7867375
17 1 3.857825 5.7867375 5.7867375
18 2 3.857825 0.0 3.857825
19 2 3.857825 3.857825 0.0
20 2 0.0 3.857825 3.857825
21 2 0.0 0.0 0.0
22 2 0.0 0.0 3.857825
23 2 3.857825 3.857825 3.857825
24 2 3.857825 0.0 0.0
25 2 0.0 3.857825 0.0
26 2 1.9289125 1.9289125 0.0
27 2 1.9289125 5.7867375 3.857825
28 2 1.9289125 1.9289125 3.857825
29 2 1.9289125 0.0 1.9289125
30 2 0.0 1.9289125 1.9289125
31 2 1.9289125 0.0 5.7867375
32 2 0.0 1.9289125 5.7867375

Velocities

1 0.0 0.0 0.0
2 0.0 0.0 0.0
3 0.0 0.0 0.0
4 0.0 0.0 0.0
5 0.0 0.0 0.0
6 0.0 0.0 0.0
7 0.0 0.0 0.0
8 0.0 0.0 0.0
9 0.0 0.0 0.0
10 0.0 0.0 0.0
11 0.0 0.0 0.0
12 0.0 0.0 0.0
13 0.0 0.0 0.0
14 0.0 0.0 0.0
15 0.0 0.0 0.0
16 0.0 0.0 0.0
17 0.0 0.0 0.0
18 0.0 0.0 0.0
19 0.0 0.0 0.0
20 0.0 0.0 0.0
21 0.0 0.0 0.0
22 0.0 0.0 0.0
23 0.0 0.0 0.0
24 0.0 0.0 0.0
25 0.0 0.0 0.0
26 0.0 0.0 0.0
27 0.0 0.0 0.0
28 0.0 0.0 0.0
29 0.0 0.0 0.0
30 0.0 0.0 0.0
31 0.0 0.0 0.0
32 0.0 0.0 0.0
