# LAMMPS data file written by OVITO Pro 3.7.5
32 atoms
2 atom types
0.0 7.929225377 xlo xhi
0.0 7.929225377 ylo yhi
0.0 7.929225377 zlo zhi

Masses

1 63.546  # Cu
2 183.84  # W

Atoms  # atomic

1 1 3.9646126885 0.0 3.9646126885
2 1 3.9646126885 3.9646126885 0.0
3 1 0.0 3.9646126885 3.9646126885
4 1 0.0 0.0 0.0
5 1 0.0 0.0 3.9646126885
6 1 3.9646126885 3.9646126885 3.9646126885
7 2 3.9646126885 0.0 0.0
8 2 0.0 3.9646126885 0.0
9 2 1.9823063443 1.9823063443 0.0
10 2 1.9823063443 0.0 1.9823063443
11 2 0.0 1.9823063443 1.9823063443
12 2 1.9823063443 1.9823063443 3.9646126885
13 2 1.9823063443 0.0 5.9469190327
14 2 0.0 1.9823063443 5.9469190327
15 2 1.9823063443 5.9469190327 0.0
16 2 1.9823063443 3.9646126885 1.9823063443
17 2 0.0 5.9469190327 1.9823063443
18 2 1.9823063443 5.9469190327 3.9646126885
19 2 1.9823063443 3.9646126885 5.9469190327
20 2 0.0 5.9469190327 5.9469190327
21 2 5.9469190327 1.9823063443 0.0
22 2 5.9469190327 0.0 1.9823063443
23 2 3.9646126885 1.9823063443 1.9823063443
24 2 5.9469190327 1.9823063443 3.9646126885
25 2 5.9469190327 0.0 5.9469190327
26 2 3.9646126885 1.9823063443 5.9469190327
27 2 5.9469190327 5.9469190327 0.0
28 2 5.9469190327 3.9646126885 1.9823063443
29 2 3.9646126885 5.9469190327 1.9823063443
30 2 5.9469190327 5.9469190327 3.9646126885
31 2 5.9469190327 3.9646126885 5.9469190327
32 2 3.9646126885 5.9469190327 5.9469190327

Velocities

1 0.0 0.0 0.0
2 0.0 0.0 0.0
3 0.0 0.0 0.0
4 0.0 0.0 0.0
5 0.0 0.0 0.0
6 0.0 0.0 0.0
7 0.0 0.0 0.0
8 0.0 0.0 0.0
9 0.0 0.0 0.0
10 0.0 0.0 0.0
11 0.0 0.0 0.0
12 0.0 0.0 0.0
13 0.0 0.0 0.0
14 0.0 0.0 0.0
15 0.0 0.0 0.0
16 0.0 0.0 0.0
17 0.0 0.0 0.0
18 0.0 0.0 0.0
19 0.0 0.0 0.0
20 0.0 0.0 0.0
21 0.0 0.0 0.0
22 0.0 0.0 0.0
23 0.0 0.0 0.0
24 0.0 0.0 0.0
25 0.0 0.0 0.0
26 0.0 0.0 0.0
27 0.0 0.0 0.0
28 0.0 0.0 0.0
29 0.0 0.0 0.0
30 0.0 0.0 0.0
31 0.0 0.0 0.0
32 0.0 0.0 0.0
