calculator: lammps
length_unit: angstrom
nqpoint: 204    
npath: 4      
segment_nqpoint:
- 51
- 51
- 51
- 51
labels:
- [ 'G', 'H' ]
- [ 'H', 'P' ]
- [ 'P', 'G' ]
- [ 'G', 'N' ]
reciprocal_lattice:
- [   0.36240850,   0.12813076,   0.22192898 ] # a*
- [   0.00000000,   0.38439227,   0.22192898 ] # b*
- [   0.00000000,   0.00000000,   0.44385796 ] # c*
natom: 1      
lattice:
- [     2.759317151156921,     0.000000000000000,     0.000000000000000 ] # a
- [    -0.919772383718974,     2.601509158703207,     0.000000000000000 ] # b
- [    -0.919772383718974,    -1.300754579351604,     2.252973019614859 ] # c
points:
- symbol: W  # 1
  coordinates: [  0.000000000000000,  0.000000000000000,  0.000000000000000 ]
  mass: 183.840000

phonon:
- q-position: [    0.0000000,    0.0000000,    0.0000000 ]
  distance:    0.0000000
  band:
  - # 1
    frequency:   -0.0000000596
  - # 2
    frequency:    0.0000000162
  - # 3
    frequency:    0.0000000646

- q-position: [    0.0100000,   -0.0100000,    0.0100000 ]
  distance:    0.0062771
  band:
  - # 1
    frequency:    0.1427025228
  - # 2
    frequency:    0.1427025228
  - # 3
    frequency:    0.3327658464

- q-position: [    0.0200000,   -0.0200000,    0.0200000 ]
  distance:    0.0125542
  band:
  - # 1
    frequency:    0.2854311052
  - # 2
    frequency:    0.2854311052
  - # 3
    frequency:    0.6644713202

- q-position: [    0.0300000,   -0.0300000,    0.0300000 ]
  distance:    0.0188313
  band:
  - # 1
    frequency:    0.4282099765
  - # 2
    frequency:    0.4282099765
  - # 3
    frequency:    0.9940609130

- q-position: [    0.0400000,   -0.0400000,    0.0400000 ]
  distance:    0.0251084
  band:
  - # 1
    frequency:    0.5710597338
  - # 2
    frequency:    0.5710597338
  - # 3
    frequency:    1.3204888320

- q-position: [    0.0500000,   -0.0500000,    0.0500000 ]
  distance:    0.0313855
  band:
  - # 1
    frequency:    0.7139955959
  - # 2
    frequency:    0.7139955959
  - # 3
    frequency:    1.6427238225

- q-position: [    0.0600000,   -0.0600000,    0.0600000 ]
  distance:    0.0376626
  band:
  - # 1
    frequency:    0.8570257401
  - # 2
    frequency:    0.8570257401
  - # 3
    frequency:    1.9597539511

- q-position: [    0.0700000,   -0.0700000,    0.0700000 ]
  distance:    0.0439397
  band:
  - # 1
    frequency:    1.0001497454
  - # 2
    frequency:    1.0001497454
  - # 3
    frequency:    2.2705913330

- q-position: [    0.0800000,   -0.0800000,    0.0800000 ]
  distance:    0.0502168
  band:
  - # 1
    frequency:    1.1433571647
  - # 2
    frequency:    1.1433571647
  - # 3
    frequency:    2.5742767947

- q-position: [    0.0900000,   -0.0900000,    0.0900000 ]
  distance:    0.0564939
  band:
  - # 1
    frequency:    1.2866262444
  - # 2
    frequency:    1.2866262444
  - # 3
    frequency:    2.8698844564

- q-position: [    0.1000000,   -0.1000000,    0.1000000 ]
  distance:    0.0627710
  band:
  - # 1
    frequency:    1.4299228077
  - # 2
    frequency:    1.4299228077
  - # 3
    frequency:    3.1565262249

- q-position: [    0.1100000,   -0.1100000,    0.1100000 ]
  distance:    0.0690481
  band:
  - # 1
    frequency:    1.5731993132
  - # 2
    frequency:    1.5731993132
  - # 3
    frequency:    3.4333561857

- q-position: [    0.1200000,   -0.1200000,    0.1200000 ]
  distance:    0.0753252
  band:
  - # 1
    frequency:    1.7163940988
  - # 2
    frequency:    1.7163940988
  - # 3
    frequency:    3.6995748848

- q-position: [    0.1300000,   -0.1300000,    0.1300000 ]
  distance:    0.0816023
  band:
  - # 1
    frequency:    1.8594308153
  - # 2
    frequency:    1.8594308153
  - # 3
    frequency:    3.9544334911

- q-position: [    0.1400000,   -0.1400000,    0.1400000 ]
  distance:    0.0878794
  band:
  - # 1
    frequency:    2.0022180521
  - # 2
    frequency:    2.0022180521
  - # 3
    frequency:    4.1972378315

- q-position: [    0.1500000,   -0.1500000,    0.1500000 ]
  distance:    0.0941565
  band:
  - # 1
    frequency:    2.1446491543
  - # 2
    frequency:    2.1446491543
  - # 3
    frequency:    4.4273522931

- q-position: [    0.1600000,   -0.1600000,    0.1600000 ]
  distance:    0.1004336
  band:
  - # 1
    frequency:    2.2866022275
  - # 2
    frequency:    2.2866022275
  - # 3
    frequency:    4.6442035863

- q-position: [    0.1700000,   -0.1700000,    0.1700000 ]
  distance:    0.1067107
  band:
  - # 1
    frequency:    2.4279403232
  - # 2
    frequency:    2.4279403232
  - # 3
    frequency:    4.8472843642

- q-position: [    0.1800000,   -0.1800000,    0.1800000 ]
  distance:    0.1129878
  band:
  - # 1
    frequency:    2.5685117977
  - # 2
    frequency:    2.5685117977
  - # 3
    frequency:    5.0361566964

- q-position: [    0.1900000,   -0.1900000,    0.1900000 ]
  distance:    0.1192649
  band:
  - # 1
    frequency:    2.7081508328
  - # 2
    frequency:    2.7081508328
  - # 3
    frequency:    5.2104553935

- q-position: [    0.2000000,   -0.2000000,    0.2000000 ]
  distance:    0.1255420
  band:
  - # 1
    frequency:    2.8466781086
  - # 2
    frequency:    2.8466781086
  - # 3
    frequency:    5.3698911825

- q-position: [    0.2100000,   -0.2100000,    0.2100000 ]
  distance:    0.1318191
  band:
  - # 1
    frequency:    2.9839016138
  - # 2
    frequency:    2.9839016138
  - # 3
    frequency:    5.5142537310

- q-position: [    0.2200000,   -0.2200000,    0.2200000 ]
  distance:    0.1380962
  band:
  - # 1
    frequency:    3.1196175821
  - # 2
    frequency:    3.1196175821
  - # 3
    frequency:    5.6434145203

- q-position: [    0.2300000,   -0.2300000,    0.2300000 ]
  distance:    0.1443733
  band:
  - # 1
    frequency:    3.2536115391
  - # 2
    frequency:    3.2536115391
  - # 3
    frequency:    5.7573295660

- q-position: [    0.2400000,   -0.2400000,    0.2400000 ]
  distance:    0.1506504
  band:
  - # 1
    frequency:    3.3856594468
  - # 2
    frequency:    3.3856594468
  - # 3
    frequency:    5.8560419821

- q-position: [    0.2500000,   -0.2500000,    0.2500000 ]
  distance:    0.1569275
  band:
  - # 1
    frequency:    3.5155289321
  - # 2
    frequency:    3.5155289321
  - # 3
    frequency:    5.9396843836

- q-position: [    0.2600000,   -0.2600000,    0.2600000 ]
  distance:    0.1632046
  band:
  - # 1
    frequency:    3.6429805839
  - # 2
    frequency:    3.6429805839
  - # 3
    frequency:    6.0084811176

- q-position: [    0.2700000,   -0.2700000,    0.2700000 ]
  distance:    0.1694817
  band:
  - # 1
    frequency:    3.7677693069
  - # 2
    frequency:    3.7677693069
  - # 3
    frequency:    6.0627503029

- q-position: [    0.2800000,   -0.2800000,    0.2800000 ]
  distance:    0.1757588
  band:
  - # 1
    frequency:    3.8896457182
  - # 2
    frequency:    3.8896457182
  - # 3
    frequency:    6.1029056525

- q-position: [    0.2900000,   -0.2900000,    0.2900000 ]
  distance:    0.1820359
  band:
  - # 1
    frequency:    4.0083575754
  - # 2
    frequency:    4.0083575754
  - # 3
    frequency:    6.1294580365

- q-position: [    0.3000000,   -0.3000000,    0.3000000 ]
  distance:    0.1883130
  band:
  - # 1
    frequency:    4.1236512220
  - # 2
    frequency:    4.1236512220
  - # 3
    frequency:    6.1430167230

- q-position: [    0.3100000,   -0.3100000,    0.3100000 ]
  distance:    0.1945901
  band:
  - # 1
    frequency:    4.2352730418
  - # 2
    frequency:    4.2352730418
  - # 3
    frequency:    6.1442902123

- q-position: [    0.3200000,   -0.3200000,    0.3200000 ]
  distance:    0.2008672
  band:
  - # 1
    frequency:    4.3429709092
  - # 2
    frequency:    4.3429709092
  - # 3
    frequency:    6.1340865444

- q-position: [    0.3300000,   -0.3300000,    0.3300000 ]
  distance:    0.2071443
  band:
  - # 1
    frequency:    4.4464956273
  - # 2
    frequency:    4.4464956273
  - # 3
    frequency:    6.1133129201

- q-position: [    0.3400000,   -0.3400000,    0.3400000 ]
  distance:    0.2134214
  band:
  - # 1
    frequency:    4.5456023428
  - # 2
    frequency:    4.5456023428
  - # 3
    frequency:    6.0829744256

- q-position: [    0.3500000,   -0.3500000,    0.3500000 ]
  distance:    0.2196985
  band:
  - # 1
    frequency:    4.6400519302
  - # 2
    frequency:    4.6400519302
  - # 3
    frequency:    6.0441715931

- q-position: [    0.3600000,   -0.3600000,    0.3600000 ]
  distance:    0.2259756
  band:
  - # 1
    frequency:    4.7296123374
  - # 2
    frequency:    4.7296123374
  - # 3
    frequency:    5.9980964604

- q-position: [    0.3700000,   -0.3700000,    0.3700000 ]
  distance:    0.2322527
  band:
  - # 1
    frequency:    4.8140598843
  - # 2
    frequency:    4.8140598843
  - # 3
    frequency:    5.9460267279

- q-position: [    0.3800000,   -0.3800000,    0.3800000 ]
  distance:    0.2385298
  band:
  - # 1
    frequency:    4.8931805078
  - # 2
    frequency:    4.8931805078
  - # 3
    frequency:    5.8893175417

- q-position: [    0.3900000,   -0.3900000,    0.3900000 ]
  distance:    0.2448069
  band:
  - # 1
    frequency:    4.9667709472
  - # 2
    frequency:    4.9667709472
  - # 3
    frequency:    5.8293903850

- q-position: [    0.4000000,   -0.4000000,    0.4000000 ]
  distance:    0.2510840
  band:
  - # 1
    frequency:    5.0346398645
  - # 2
    frequency:    5.0346398645
  - # 3
    frequency:    5.7677185384

- q-position: [    0.4100000,   -0.4100000,    0.4100000 ]
  distance:    0.2573611
  band:
  - # 1
    frequency:    5.0966088935
  - # 2
    frequency:    5.0966088935
  - # 3
    frequency:    5.7058086117

- q-position: [    0.4200000,   -0.4200000,    0.4200000 ]
  distance:    0.2636382
  band:
  - # 1
    frequency:    5.1525136126
  - # 2
    frequency:    5.1525136126
  - # 3
    frequency:    5.6451777596

- q-position: [    0.4300000,   -0.4300000,    0.4300000 ]
  distance:    0.2699153
  band:
  - # 1
    frequency:    5.2022044389
  - # 2
    frequency:    5.2022044389
  - # 3
    frequency:    5.5873264190

- q-position: [    0.4400000,   -0.4400000,    0.4400000 ]
  distance:    0.2761924
  band:
  - # 1
    frequency:    5.2455474376
  - # 2
    frequency:    5.2455474376
  - # 3
    frequency:    5.5337067459

- q-position: [    0.4500000,   -0.4500000,    0.4500000 ]
  distance:    0.2824695
  band:
  - # 1
    frequency:    5.2824250440
  - # 2
    frequency:    5.2824250440
  - # 3
    frequency:    5.4856873946

- q-position: [    0.4600000,   -0.4600000,    0.4600000 ]
  distance:    0.2887466
  band:
  - # 1
    frequency:    5.3127366957
  - # 2
    frequency:    5.3127366957
  - # 3
    frequency:    5.4445158402

- q-position: [    0.4700000,   -0.4700000,    0.4700000 ]
  distance:    0.2950237
  band:
  - # 1
    frequency:    5.3363993717
  - # 2
    frequency:    5.3363993717
  - # 3
    frequency:    5.4112800306

- q-position: [    0.4800000,   -0.4800000,    0.4800000 ]
  distance:    0.3013008
  band:
  - # 1
    frequency:    5.3533480363
  - # 2
    frequency:    5.3533480363
  - # 3
    frequency:    5.3868716727

- q-position: [    0.4900000,   -0.4900000,    0.4900000 ]
  distance:    0.3075779
  band:
  - # 1
    frequency:    5.3635359863
  - # 2
    frequency:    5.3635359863
  - # 3
    frequency:    5.3719537763

- q-position: [    0.5000000,   -0.5000000,    0.5000000 ]
  distance:    0.3138550
  band:
  - # 1
    frequency:    5.3669350998
  - # 2
    frequency:    5.3669350998
  - # 3
    frequency:    5.3669350998

- q-position: [    0.5000000,   -0.5000000,    0.5000000 ]
  distance:    0.3138550
  band:
  - # 1
    frequency:    5.3669350998
  - # 2
    frequency:    5.3669350998
  - # 3
    frequency:    5.3669350998

- q-position: [    0.4950000,   -0.4850000,    0.4950000 ]
  distance:    0.3192911
  band:
  - # 1
    frequency:    5.3654145331
  - # 2
    frequency:    5.3670325646
  - # 3
    frequency:    5.3670325646

- q-position: [    0.4900000,   -0.4700000,    0.4900000 ]
  distance:    0.3247272
  band:
  - # 1
    frequency:    5.3608632775
  - # 2
    frequency:    5.3673288424
  - # 3
    frequency:    5.3673288424

- q-position: [    0.4850000,   -0.4550000,    0.4850000 ]
  distance:    0.3301634
  band:
  - # 1
    frequency:    5.3533127029
  - # 2
    frequency:    5.3678354867
  - # 3
    frequency:    5.3678354867

- q-position: [    0.4800000,   -0.4400000,    0.4800000 ]
  distance:    0.3355995
  band:
  - # 1
    frequency:    5.3428152114
  - # 2
    frequency:    5.3685714331
  - # 3
    frequency:    5.3685714331

- q-position: [    0.4750000,   -0.4250000,    0.4750000 ]
  distance:    0.3410356
  band:
  - # 1
    frequency:    5.3294444102
  - # 2
    frequency:    5.3695625234
  - # 3
    frequency:    5.3695625234

- q-position: [    0.4700000,   -0.4100000,    0.4700000 ]
  distance:    0.3464717
  band:
  - # 1
    frequency:    5.3132953407
  - # 2
    frequency:    5.3708408499
  - # 3
    frequency:    5.3708408499

- q-position: [    0.4650000,   -0.3950000,    0.4650000 ]
  distance:    0.3519079
  band:
  - # 1
    frequency:    5.2944847526
  - # 2
    frequency:    5.3724439289
  - # 3
    frequency:    5.3724439289

- q-position: [    0.4600000,   -0.3800000,    0.4600000 ]
  distance:    0.3573440
  band:
  - # 1
    frequency:    5.2731514051
  - # 2
    frequency:    5.3744137170
  - # 3
    frequency:    5.3744137170

- q-position: [    0.4550000,   -0.3650000,    0.4550000 ]
  distance:    0.3627801
  band:
  - # 1
    frequency:    5.2494563751
  - # 2
    frequency:    5.3767954852
  - # 3
    frequency:    5.3767954852

- q-position: [    0.4500000,   -0.3500000,    0.4500000 ]
  distance:    0.3682162
  band:
  - # 1
    frequency:    5.2235833460
  - # 2
    frequency:    5.3796365700
  - # 3
    frequency:    5.3796365700

- q-position: [    0.4450000,   -0.3350000,    0.4450000 ]
  distance:    0.3736524
  band:
  - # 1
    frequency:    5.1957388458
  - # 2
    frequency:    5.3829850215
  - # 3
    frequency:    5.3829850215

- q-position: [    0.4400000,   -0.3200000,    0.4400000 ]
  distance:    0.3790885
  band:
  - # 1
    frequency:    5.1661523983
  - # 2
    frequency:    5.3868881726
  - # 3
    frequency:    5.3868881726

- q-position: [    0.4350000,   -0.3050000,    0.4350000 ]
  distance:    0.3845246
  band:
  - # 1
    frequency:    5.1350765439
  - # 2
    frequency:    5.3913911544
  - # 3
    frequency:    5.3913911544

- q-position: [    0.4300000,   -0.2900000,    0.4300000 ]
  distance:    0.3899608
  band:
  - # 1
    frequency:    5.1027866819
  - # 2
    frequency:    5.3965353859
  - # 3
    frequency:    5.3965353859

- q-position: [    0.4250000,   -0.2750000,    0.4250000 ]
  distance:    0.3953969
  band:
  - # 1
    frequency:    5.0695806782
  - # 2
    frequency:    5.4023570650
  - # 3
    frequency:    5.4023570650

- q-position: [    0.4200000,   -0.2600000,    0.4200000 ]
  distance:    0.4008330
  band:
  - # 1
    frequency:    5.0357781786
  - # 2
    frequency:    5.4088856920
  - # 3
    frequency:    5.4088856920

- q-position: [    0.4150000,   -0.2450000,    0.4150000 ]
  distance:    0.4062691
  band:
  - # 1
    frequency:    5.0017195625
  - # 2
    frequency:    5.4161426525
  - # 3
    frequency:    5.4161426525

- q-position: [    0.4100000,   -0.2300000,    0.4100000 ]
  distance:    0.4117053
  band:
  - # 1
    frequency:    4.9677644678
  - # 2
    frequency:    5.4241398906
  - # 3
    frequency:    5.4241398906

- q-position: [    0.4050000,   -0.2150000,    0.4050000 ]
  distance:    0.4171414
  band:
  - # 1
    frequency:    4.9342898203
  - # 2
    frequency:    5.4328786978
  - # 3
    frequency:    5.4328786978

- q-position: [    0.4000000,   -0.2000000,    0.4000000 ]
  distance:    0.4225775
  band:
  - # 1
    frequency:    4.9016872999
  - # 2
    frequency:    5.4423486432
  - # 3
    frequency:    5.4423486432

- q-position: [    0.3950000,   -0.1850000,    0.3950000 ]
  distance:    0.4280136
  band:
  - # 1
    frequency:    4.8703601882
  - # 2
    frequency:    5.4525266666
  - # 3
    frequency:    5.4525266666

- q-position: [    0.3900000,   -0.1700000,    0.3900000 ]
  distance:    0.4334498
  band:
  - # 1
    frequency:    4.8407195524
  - # 2
    frequency:    5.4633763534
  - # 3
    frequency:    5.4633763534

- q-position: [    0.3850000,   -0.1550000,    0.3850000 ]
  distance:    0.4388859
  band:
  - # 1
    frequency:    4.8131797410
  - # 2
    frequency:    5.4748474053
  - # 3
    frequency:    5.4748474053

- q-position: [    0.3800000,   -0.1400000,    0.3800000 ]
  distance:    0.4443220
  band:
  - # 1
    frequency:    4.7881531971
  - # 2
    frequency:    5.4868753162
  - # 3
    frequency:    5.4868753162

- q-position: [    0.3750000,   -0.1250000,    0.3750000 ]
  distance:    0.4497582
  band:
  - # 1
    frequency:    4.7660446238
  - # 2
    frequency:    5.4993812593
  - # 3
    frequency:    5.4993812593

- q-position: [    0.3700000,   -0.1100000,    0.3700000 ]
  distance:    0.4551943
  band:
  - # 1
    frequency:    4.7472445837
  - # 2
    frequency:    5.5122721848
  - # 3
    frequency:    5.5122721848

- q-position: [    0.3650000,   -0.0950000,    0.3650000 ]
  distance:    0.4606304
  band:
  - # 1
    frequency:    4.7321226525
  - # 2
    frequency:    5.5254411244
  - # 3
    frequency:    5.5254411244

- q-position: [    0.3600000,   -0.0800000,    0.3600000 ]
  distance:    0.4660665
  band:
  - # 1
    frequency:    4.7210202963
  - # 2
    frequency:    5.5387676934
  - # 3
    frequency:    5.5387676934

- q-position: [    0.3550000,   -0.0650000,    0.3550000 ]
  distance:    0.4715027
  band:
  - # 1
    frequency:    4.7142436842
  - # 2
    frequency:    5.5521187785
  - # 3
    frequency:    5.5521187785

- q-position: [    0.3500000,   -0.0500000,    0.3500000 ]
  distance:    0.4769388
  band:
  - # 1
    frequency:    4.7120566789
  - # 2
    frequency:    5.5653493938
  - # 3
    frequency:    5.5653493938

- q-position: [    0.3450000,   -0.0350000,    0.3450000 ]
  distance:    0.4823749
  band:
  - # 1
    frequency:    4.7146742742
  - # 2
    frequency:    5.5783036882
  - # 3
    frequency:    5.5783036882

- q-position: [    0.3400000,   -0.0200000,    0.3400000 ]
  distance:    0.4878111
  band:
  - # 1
    frequency:    4.7222567468
  - # 2
    frequency:    5.5908160816
  - # 3
    frequency:    5.5908160816

- q-position: [    0.3350000,   -0.0050000,    0.3350000 ]
  distance:    0.4932472
  band:
  - # 1
    frequency:    4.7349047778
  - # 2
    frequency:    5.6027125091
  - # 3
    frequency:    5.6027125091

- q-position: [    0.3300000,    0.0100000,    0.3300000 ]
  distance:    0.4986833
  band:
  - # 1
    frequency:    4.7526557600
  - # 2
    frequency:    5.6138117491
  - # 3
    frequency:    5.6138117491

- q-position: [    0.3250000,    0.0250000,    0.3250000 ]
  distance:    0.5041194
  band:
  - # 1
    frequency:    4.7754814529
  - # 2
    frequency:    5.6239268138
  - # 3
    frequency:    5.6239268138

- q-position: [    0.3200000,    0.0400000,    0.3200000 ]
  distance:    0.5095556
  band:
  - # 1
    frequency:    4.8032870774
  - # 2
    frequency:    5.6328663795
  - # 3
    frequency:    5.6328663795

- q-position: [    0.3150000,    0.0550000,    0.3150000 ]
  distance:    0.5149917
  band:
  - # 1
    frequency:    4.8359118670
  - # 2
    frequency:    5.6404362349
  - # 3
    frequency:    5.6404362349

- q-position: [    0.3100000,    0.0700000,    0.3100000 ]
  distance:    0.5204278
  band:
  - # 1
    frequency:    4.8731310135
  - # 2
    frequency:    5.6464407285
  - # 3
    frequency:    5.6464407285

- q-position: [    0.3050000,    0.0850000,    0.3050000 ]
  distance:    0.5258639
  band:
  - # 1
    frequency:    4.9146588811
  - # 2
    frequency:    5.6506841969
  - # 3
    frequency:    5.6506841969

- q-position: [    0.3000000,    0.1000000,    0.3000000 ]
  distance:    0.5313001
  band:
  - # 1
    frequency:    4.9601533031
  - # 2
    frequency:    5.6529723570
  - # 3
    frequency:    5.6529723570

- q-position: [    0.2950000,    0.1150000,    0.2950000 ]
  distance:    0.5367362
  band:
  - # 1
    frequency:    5.0092207439
  - # 2
    frequency:    5.6531136497
  - # 3
    frequency:    5.6531136497

- q-position: [    0.2900000,    0.1300000,    0.2900000 ]
  distance:    0.5421723
  band:
  - # 1
    frequency:    5.0614220865
  - # 2
    frequency:    5.6509205210
  - # 3
    frequency:    5.6509205210

- q-position: [    0.2850000,    0.1450000,    0.2850000 ]
  distance:    0.5476085
  band:
  - # 1
    frequency:    5.1162788104
  - # 2
    frequency:    5.6462106323
  - # 3
    frequency:    5.6462106323

- q-position: [    0.2800000,    0.1600000,    0.2800000 ]
  distance:    0.5530446
  band:
  - # 1
    frequency:    5.1732793394
  - # 2
    frequency:    5.6388079897
  - # 3
    frequency:    5.6388079897

- q-position: [    0.2750000,    0.1750000,    0.2750000 ]
  distance:    0.5584807
  band:
  - # 1
    frequency:    5.2318853650
  - # 2
    frequency:    5.6285439879
  - # 3
    frequency:    5.6285439879

- q-position: [    0.2700000,    0.1900000,    0.2700000 ]
  distance:    0.5639168
  band:
  - # 1
    frequency:    5.2915379888
  - # 2
    frequency:    5.6152583623
  - # 3
    frequency:    5.6152583623

- q-position: [    0.2650000,    0.2050000,    0.2650000 ]
  distance:    0.5693530
  band:
  - # 1
    frequency:    5.3516635611
  - # 2
    frequency:    5.5988000466
  - # 3
    frequency:    5.5988000466

- q-position: [    0.2600000,    0.2200000,    0.2600000 ]
  distance:    0.5747891
  band:
  - # 1
    frequency:    5.4116791322
  - # 2
    frequency:    5.5790279344
  - # 3
    frequency:    5.5790279344

- q-position: [    0.2550000,    0.2350000,    0.2550000 ]
  distance:    0.5802252
  band:
  - # 1
    frequency:    5.4709974637
  - # 2
    frequency:    5.5558115425
  - # 3
    frequency:    5.5558115425

- q-position: [    0.2500000,    0.2500000,    0.2500000 ]
  distance:    0.5856613
  band:
  - # 1
    frequency:    5.5290315775
  - # 2
    frequency:    5.5290315775
  - # 3
    frequency:    5.5290315775

- q-position: [    0.2500000,    0.2500000,    0.2500000 ]
  distance:    0.5856613
  band:
  - # 1
    frequency:    5.5290315775
  - # 2
    frequency:    5.5290315775
  - # 3
    frequency:    5.5290315775

- q-position: [    0.2450000,    0.2450000,    0.2450000 ]
  distance:    0.5910975
  band:
  - # 1
    frequency:    5.4985804059
  - # 2
    frequency:    5.4985804059
  - # 3
    frequency:    5.5851988403

- q-position: [    0.2400000,    0.2400000,    0.2400000 ]
  distance:    0.5965336
  band:
  - # 1
    frequency:    5.4643624295
  - # 2
    frequency:    5.4643624295
  - # 3
    frequency:    5.6389246011

- q-position: [    0.2350000,    0.2350000,    0.2350000 ]
  distance:    0.6019697
  band:
  - # 1
    frequency:    5.4262943681
  - # 2
    frequency:    5.4262943681
  - # 3
    frequency:    5.6896454074

- q-position: [    0.2300000,    0.2300000,    0.2300000 ]
  distance:    0.6074059
  band:
  - # 1
    frequency:    5.3843054525
  - # 2
    frequency:    5.3843054525
  - # 3
    frequency:    5.7368118365

- q-position: [    0.2250000,    0.2250000,    0.2250000 ]
  distance:    0.6128420
  band:
  - # 1
    frequency:    5.3383375316
  - # 2
    frequency:    5.3383375316
  - # 3
    frequency:    5.7798909787

- q-position: [    0.2200000,    0.2200000,    0.2200000 ]
  distance:    0.6182781
  band:
  - # 1
    frequency:    5.2883450956
  - # 2
    frequency:    5.2883450956
  - # 3
    frequency:    5.8183686113

- q-position: [    0.2150000,    0.2150000,    0.2150000 ]
  distance:    0.6237142
  band:
  - # 1
    frequency:    5.2342952204
  - # 2
    frequency:    5.2342952204
  - # 3
    frequency:    5.8517511012

- q-position: [    0.2100000,    0.2100000,    0.2100000 ]
  distance:    0.6291504
  band:
  - # 1
    frequency:    5.1761674370
  - # 2
    frequency:    5.1761674370
  - # 3
    frequency:    5.8795670691

- q-position: [    0.2050000,    0.2050000,    0.2050000 ]
  distance:    0.6345865
  band:
  - # 1
    frequency:    5.1139535294
  - # 2
    frequency:    5.1139535294
  - # 3
    frequency:    5.9013688476

- q-position: [    0.2000000,    0.2000000,    0.2000000 ]
  distance:    0.6400226
  band:
  - # 1
    frequency:    5.0476572665
  - # 2
    frequency:    5.0476572665
  - # 3
    frequency:    5.9167337600

- q-position: [    0.1950000,    0.1950000,    0.1950000 ]
  distance:    0.6454588
  band:
  - # 1
    frequency:    4.9772940715
  - # 2
    frequency:    4.9772940715
  - # 3
    frequency:    5.9252652415

- q-position: [    0.1900000,    0.1900000,    0.1900000 ]
  distance:    0.6508949
  band:
  - # 1
    frequency:    4.9028906345
  - # 2
    frequency:    4.9028906345
  - # 3
    frequency:    5.9265938238

- q-position: [    0.1850000,    0.1850000,    0.1850000 ]
  distance:    0.6563310
  band:
  - # 1
    frequency:    4.8244844721
  - # 2
    frequency:    4.8244844721
  - # 3
    frequency:    5.9203779968

- q-position: [    0.1800000,    0.1800000,    0.1800000 ]
  distance:    0.6617671
  band:
  - # 1
    frequency:    4.7421234396
  - # 2
    frequency:    4.7421234396
  - # 3
    frequency:    5.9063049621

- q-position: [    0.1750000,    0.1750000,    0.1750000 ]
  distance:    0.6672033
  band:
  - # 1
    frequency:    4.6558652005
  - # 2
    frequency:    4.6558652005
  - # 3
    frequency:    5.8840912857

- q-position: [    0.1700000,    0.1700000,    0.1700000 ]
  distance:    0.6726394
  band:
  - # 1
    frequency:    4.5657766586
  - # 2
    frequency:    4.5657766586
  - # 3
    frequency:    5.8534834585

- q-position: [    0.1650000,    0.1650000,    0.1650000 ]
  distance:    0.6780755
  band:
  - # 1
    frequency:    4.4719333577
  - # 2
    frequency:    4.4719333577
  - # 3
    frequency:    5.8142583702

- q-position: [    0.1600000,    0.1600000,    0.1600000 ]
  distance:    0.6835116
  band:
  - # 1
    frequency:    4.3744188536
  - # 2
    frequency:    4.3744188536
  - # 3
    frequency:    5.7662236990

- q-position: [    0.1550000,    0.1550000,    0.1550000 ]
  distance:    0.6889478
  band:
  - # 1
    frequency:    4.2733240655
  - # 2
    frequency:    4.2733240655
  - # 3
    frequency:    5.7092182205

- q-position: [    0.1500000,    0.1500000,    0.1500000 ]
  distance:    0.6943839
  band:
  - # 1
    frequency:    4.1687466091
  - # 2
    frequency:    4.1687466091
  - # 3
    frequency:    5.6431120376

- q-position: [    0.1450000,    0.1450000,    0.1450000 ]
  distance:    0.6998200
  band:
  - # 1
    frequency:    4.0607901202
  - # 2
    frequency:    4.0607901202
  - # 3
    frequency:    5.5678067302

- q-position: [    0.1400000,    0.1400000,    0.1400000 ]
  distance:    0.7052562
  band:
  - # 1
    frequency:    3.9495635712
  - # 2
    frequency:    3.9495635712
  - # 3
    frequency:    5.4832354268

- q-position: [    0.1350000,    0.1350000,    0.1350000 ]
  distance:    0.7106923
  band:
  - # 1
    frequency:    3.8351805875
  - # 2
    frequency:    3.8351805875
  - # 3
    frequency:    5.3893627962

- q-position: [    0.1300000,    0.1300000,    0.1300000 ]
  distance:    0.7161284
  band:
  - # 1
    frequency:    3.7177587690
  - # 2
    frequency:    3.7177587690
  - # 3
    frequency:    5.2861849599

- q-position: [    0.1250000,    0.1250000,    0.1250000 ]
  distance:    0.7215645
  band:
  - # 1
    frequency:    3.5974190208
  - # 2
    frequency:    3.5974190208
  - # 3
    frequency:    5.1737293234

- q-position: [    0.1200000,    0.1200000,    0.1200000 ]
  distance:    0.7270007
  band:
  - # 1
    frequency:    3.4742848999
  - # 2
    frequency:    3.4742848999
  - # 3
    frequency:    5.0520543273

- q-position: [    0.1150000,    0.1150000,    0.1150000 ]
  distance:    0.7324368
  band:
  - # 1
    frequency:    3.3484819809
  - # 2
    frequency:    3.3484819809
  - # 3
    frequency:    4.9212491155

- q-position: [    0.1100000,    0.1100000,    0.1100000 ]
  distance:    0.7378729
  band:
  - # 1
    frequency:    3.2201372475
  - # 2
    frequency:    3.2201372475
  - # 3
    frequency:    4.7814331226

- q-position: [    0.1050000,    0.1050000,    0.1050000 ]
  distance:    0.7433090
  band:
  - # 1
    frequency:    3.0893785131
  - # 2
    frequency:    3.0893785131
  - # 3
    frequency:    4.6327555787

- q-position: [    0.1000000,    0.1000000,    0.1000000 ]
  distance:    0.7487452
  band:
  - # 1
    frequency:    2.9563338752
  - # 2
    frequency:    2.9563338752
  - # 3
    frequency:    4.4753949322

- q-position: [    0.0950000,    0.0950000,    0.0950000 ]
  distance:    0.7541813
  band:
  - # 1
    frequency:    2.8211312078
  - # 2
    frequency:    2.8211312078
  - # 3
    frequency:    4.3095581910

- q-position: [    0.0900000,    0.0900000,    0.0900000 ]
  distance:    0.7596174
  band:
  - # 1
    frequency:    2.6838976950
  - # 2
    frequency:    2.6838976950
  - # 3
    frequency:    4.1354801832

- q-position: [    0.0850000,    0.0850000,    0.0850000 ]
  distance:    0.7650536
  band:
  - # 1
    frequency:    2.5447594101
  - # 2
    frequency:    2.5447594101
  - # 3
    frequency:    3.9534227374

- q-position: [    0.0800000,    0.0800000,    0.0800000 ]
  distance:    0.7704897
  band:
  - # 1
    frequency:    2.4038409423
  - # 2
    frequency:    2.4038409423
  - # 3
    frequency:    3.7636737853

- q-position: [    0.0750000,    0.0750000,    0.0750000 ]
  distance:    0.7759258
  band:
  - # 1
    frequency:    2.2612650735
  - # 2
    frequency:    2.2612650735
  - # 3
    frequency:    3.5665463870

- q-position: [    0.0700000,    0.0700000,    0.0700000 ]
  distance:    0.7813619
  band:
  - # 1
    frequency:    2.1171525072
  - # 2
    frequency:    2.1171525072
  - # 3
    frequency:    3.3623776821

- q-position: [    0.0650000,    0.0650000,    0.0650000 ]