phonopy:
  version: "2.19.1"
  calculator: lammps
  frequency_unit_conversion_factor: 15.633302
  symmetry_tolerance: 1.00000e-05
  configuration:
    cell_filename: "supercell_vac"
    create_displacements: ".true."
    dim: "1 1 1"
    calculator: "lammps"

physical_unit:
  atomic_mass: "AMU"
  length: "angstrom"
  force_constants: "eV/angstrom^2"

space_group:
  type: "Cmmm"
  number: 65
  Hall_symbol: "-C 2 2"

supercell_matrix:
- [   1,   0,   0 ]
- [   0,   1,   0 ]
- [   0,   0,   1 ]

primitive_cell:
  lattice:
  - [    16.555902906941530,     0.000000000000000,     0.000000000000000 ] # a
  - [    -5.518634302313844,    15.609054952219248,     0.000000000000000 ] # b
  - [   -11.037268604627688,   -15.609054952219230,    27.035676235378318 ] # c
  points:
  - symbol: W  # 1
    coordinates: [  0.000000000000000,  0.000000000000000,  0.000000000000000 ]
    mass: 183.840000
  - symbol: W  # 2
    coordinates: [  0.166666666666667,  0.000000000000000,  0.000000000000000 ]
    mass: 183.840000
  - symbol: W  # 3
    coordinates: [  0.333333333333333,  0.000000000000000,  0.000000000000000 ]
    mass: 183.840000
  - symbol: W  # 4
    coordinates: [  0.500000000000000,  0.000000000000000,  0.000000000000000 ]
    mass: 183.840000
  - symbol: W  # 5
    coordinates: [  0.666666666666667,  0.000000000000000,  0.000000000000000 ]
    mass: 183.840000
  - symbol: W  # 6
    coordinates: [  0.833333333333333,  0.000000000000000,  0.000000000000000 ]
    mass: 183.840000
  - symbol: W  # 7
    coordinates: [  0.000000000000000,  0.166666666666667,  0.000000000000000 ]
    mass: 183.840000
  - symbol: W  # 8
    coordinates: [  0.166666666666667,  0.166666666666667,  0.000000000000000 ]
    mass: 183.840000
  - symbol: W  # 9
    coordinates: [  0.333333333333333,  0.166666666666667,  0.000000000000000 ]
    mass: 183.840000
  - symbol: W  # 10
    coordinates: [  0.500000000000000,  0.166666666666667,  0.000000000000000 ]
    mass: 183.840000
  - symbol: W  # 11
    coordinates: [  0.666666666666667,  0.166666666666667,  0.000000000000000 ]
    mass: 183.840000
  - symbol: W  # 12
    coordinates: [  0.833333333333333,  0.166666666666667,  0.000000000000000 ]
    mass: 183.840000
  - symbol: W  # 13
    coordinates: [  0.000000000000000,  0.333333333333333,  0.000000000000000 ]
    mass: 183.840000
  - symbol: W  # 14
    coordinates: [  0.166666666666667,  0.333333333333333,  0.000000000000000 ]
    mass: 183.840000
  - symbol: W  # 15
    coordinates: [  0.333333333333333,  0.333333333333333,  0.000000000000000 ]
    mass: 183.840000
  - symbol: W  # 16
    coordinates: [  0.500000000000000,  0.333333333333333,  0.000000000000000 ]
    mass: 183.840000
  - symbol: W  # 17
    coordinates: [  0.666666666666667,  0.333333333333333,  0.000000000000000 ]
    mass: 183.840000
  - symbol: W  # 18
    coordinates: [  0.833333333333333,  0.333333333333333,  0.000000000000000 ]
    mass: 183.840000
  - symbol: W  # 19
    coordinates: [  0.000000000000000,  0.500000000000000,  0.000000000000000 ]
    mass: 183.840000
  - symbol: W  # 20
    coordinates: [  0.166666666666667,  0.500000000000000,  0.000000000000000 ]
    mass: 183.840000
  - symbol: W  # 21
    coordinates: [  0.333333333333333,  0.500000000000000,  0.000000000000000 ]
    mass: 183.840000
  - symbol: W  # 22
    coordinates: [  0.500000000000000,  0.500000000000000,  0.000000000000000 ]
    mass: 183.840000
  - symbol: W  # 23
    coordinates: [  0.666666666666667,  0.500000000000000,  0.000000000000000 ]
    mass: 183.840000
  - symbol: W  # 24
    coordinates: [  0.833333333333333,  0.500000000000000,  0.000000000000000 ]
    mass: 183.840000
  - symbol: W  # 25
    coordinates: [  0.000000000000000,  0.666666666666667,  0.000000000000000 ]
    mass: 183.840000
  - symbol: W  # 26
    coordinates: [  0.166666666666667,  0.666666666666667,  0.000000000000000 ]
    mass: 183.840000
  - symbol: W  # 27
    coordinates: [  0.333333333333333,  0.666666666666667,  0.000000000000000 ]
    mass: 183.840000
  - symbol: W  # 28
    coordinates: [  0.500000000000000,  0.666666666666667,  0.000000000000000 ]
    mass: 183.840000
  - symbol: W  # 29
    coordinates: [  0.666666666666667,  0.666666666666667,  0.000000000000000 ]
    mass: 183.840000
  - symbol: W  # 30
    coordinates: [  0.833333333333333,  0.666666666666667,  0.000000000000000 ]
    mass: 183.840000
  - symbol: W  # 31
    coordinates: [  0.000000000000000,  0.833333333333333,  0.000000000000000 ]
    mass: 183.840000
  - symbol: W  # 32
    coordinates: [  0.166666666666667,  0.833333333333333,  0.000000000000000 ]
    mass: 183.840000
  - symbol: W  # 33
    coordinates: [  0.333333333333333,  0.833333333333333,  0.000000000000000 ]
    mass: 183.840000
  - symbol: W  # 34
    coordinates: [  0.500000000000000,  0.833333333333333,  0.000000000000000 ]
    mass: 183.840000
  - symbol: W  # 35
    coordinates: [  0.666666666666667,  0.833333333333333,  0.000000000000000 ]
    mass: 183.840000
  - symbol: W  # 36
    coordinates: [  0.833333333333333,  0.833333333333333,  0.000000000000000 ]
    mass: 183.840000
  - symbol: W  # 37
    coordinates: [  0.000000000000000,  0.000000000000000,  0.083333333333333 ]
    mass: 183.840000
  - symbol: W  # 38
    coordinates: [  0.166666666666667,  0.000000000000000,  0.083333333333333 ]
    mass: 183.840000
  - symbol: W  # 39
    coordinates: [  0.333333333333333,  0.000000000000000,  0.083333333333333 ]
    mass: 183.840000
  - symbol: W  # 40
    coordinates: [  0.500000000000000,  0.000000000000000,  0.083333333333333 ]
    mass: 183.840000
  - symbol: W  # 41
    coordinates: [  0.666666666666667,  0.000000000000000,  0.083333333333333 ]
    mass: 183.840000
  - symbol: W  # 42
    coordinates: [  0.833333333333333,  0.000000000000000,  0.083333333333333 ]
    mass: 183.840000
  - symbol: W  # 43
    coordinates: [  0.000000000000000,  0.166666666666667,  0.083333333333333 ]
    mass: 183.840000
  - symbol: W  # 44
    coordinates: [  0.166666666666667,  0.166666666666667,  0.083333333333333 ]
    mass: 183.840000
  - symbol: W  # 45
    coordinates: [  0.333333333333333,  0.166666666666667,  0.083333333333333 ]
    mass: 183.840000
  - symbol: W  # 46
    coordinates: [  0.500000000000000,  0.166666666666667,  0.083333333333333 ]
    mass: 183.840000
  - symbol: W  # 47
    coordinates: [  0.666666666666666,  0.166666666666667,  0.083333333333333 ]
    mass: 183.840000
  - symbol: W  # 48
    coordinates: [  0.833333333333333,  0.166666666666667,  0.083333333333333 ]
    mass: 183.840000
  - symbol: W  # 49
    coordinates: [  0.000000000000000,  0.333333333333333,  0.083333333333333 ]
    mass: 183.840000
  - symbol: W  # 50
    coordinates: [  0.166666666666667,  0.333333333333333,  0.083333333333333 ]
    mass: 183.840000
  - symbol: W  # 51
    coordinates: [  0.333333333333333,  0.333333333333333,  0.083333333333333 ]
    mass: 183.840000
  - symbol: W  # 52
    coordinates: [  0.500000000000000,  0.333333333333333,  0.083333333333333 ]
    mass: 183.840000
  - symbol: W  # 53
    coordinates: [  0.666666666666667,  0.333333333333333,  0.083333333333333 ]
    mass: 183.840000
  - symbol: W  # 54
    coordinates: [  0.833333333333333,  0.333333333333333,  0.083333333333333 ]
    mass: 183.840000
  - symbol: W  # 55
    coordinates: [  0.000000000000000,  0.500000000000000,  0.083333333333333 ]
    mass: 183.840000
  - symbol: W  # 56
    coordinates: [  0.166666666666667,  0.500000000000000,  0.083333333333333 ]
    mass: 183.840000
  - symbol: W  # 57
    coordinates: [  0.333333333333333,  0.500000000000000,  0.083333333333333 ]
    mass: 183.840000
  - symbol: W  # 58
    coordinates: [  0.500000000000000,  0.500000000000000,  0.083333333333333 ]
    mass: 183.840000
  - symbol: W  # 59
    coordinates: [  0.666666666666667,  0.500000000000000,  0.083333333333333 ]
    mass: 183.840000
  - symbol: W  # 60
    coordinates: [  0.833333333333333,  0.500000000000000,  0.083333333333333 ]
    mass: 183.840000
  - symbol: W  # 61
    coordinates: [  0.000000000000000,  0.666666666666667,  0.083333333333333 ]
    mass: 183.840000
  - symbol: W  # 62
    coordinates: [  0.166666666666667,  0.666666666666667,  0.083333333333333 ]
    mass: 183.840000
  - symbol: W  # 63
    coordinates: [  0.333333333333333,  0.666666666666667,  0.083333333333333 ]
    mass: 183.840000
  - symbol: W  # 64
    coordinates: [  0.500000000000000,  0.666666666666667,  0.083333333333333 ]
    mass: 183.840000
  - symbol: W  # 65
    coordinates: [  0.666666666666667,  0.666666666666667,  0.083333333333333 ]
    mass: 183.840000
  - symbol: W  # 66
    coordinates: [  0.833333333333333,  0.666666666666667,  0.083333333333333 ]
    mass: 183.840000
  - symbol: W  # 67
    coordinates: [  0.000000000000000,  0.833333333333333,  0.083333333333333 ]
    mass: 183.840000
  - symbol: W  # 68
    coordinates: [  0.166666666666667,  0.833333333333333,  0.083333333333333 ]
    mass: 183.840000
  - symbol: W  # 69
    coordinates: [  0.333333333333333,  0.833333333333333,  0.083333333333333 ]
    mass: 183.840000
  - symbol: W  # 70
    coordinates: [  0.500000000000000,  0.833333333333333,  0.083333333333333 ]
    mass: 183.840000
  - symbol: W  # 71
    coordinates: [  0.666666666666667,  0.833333333333333,  0.083333333333333 ]
    mass: 183.840000
  - symbol: W  # 72
    coordinates: [  0.833333333333333,  0.833333333333333,  0.083333333333333 ]
    mass: 183.840000
  - symbol: W  # 73
    coordinates: [  0.000000000000000,  0.000000000000000,  0.166666666666667 ]
    mass: 183.840000
  - symbol: W  # 74
    coordinates: [  0.166666666666667,  0.000000000000000,  0.166666666666667 ]
    mass: 183.840000
  - symbol: W  # 75
    coordinates: [  0.333333333333333,  0.000000000000000,  0.166666666666667 ]
    mass: 183.840000
  - symbol: W  # 76
    coordinates: [  0.500000000000000,  0.000000000000000,  0.166666666666667 ]
    mass: 183.840000
  - symbol: W  # 77
    coordinates: [  0.666666666666667,  0.000000000000000,  0.166666666666667 ]
    mass: 183.840000
  - symbol: W  # 78
    coordinates: [  0.833333333333333,  0.000000000000000,  0.166666666666667 ]
    mass: 183.840000
  - symbol: W  # 79
    coordinates: [  0.000000000000000,  0.166666666666667,  0.166666666666667 ]
    mass: 183.840000
  - symbol: W  # 80
    coordinates: [  0.166666666666667,  0.166666666666667,  0.166666666666667 ]
    mass: 183.840000
  - symbol: W  # 81
    coordinates: [  0.333333333333333,  0.166666666666667,  0.166666666666667 ]
    mass: 183.840000
  - symbol: W  # 82
    coordinates: [  0.500000000000000,  0.166666666666667,  0.166666666666667 ]
    mass: 183.840000
  - symbol: W  # 83
    coordinates: [  0.666666666666666,  0.166666666666667,  0.166666666666667 ]
    mass: 183.840000
  - symbol: W  # 84
    coordinates: [  0.833333333333333,  0.166666666666667,  0.166666666666667 ]
    mass: 183.840000
  - symbol: W  # 85
    coordinates: [  0.000000000000000,  0.333333333333333,  0.166666666666667 ]
    mass: 183.840000
  - symbol: W  # 86
    coordinates: [  0.166666666666667,  0.333333333333333,  0.166666666666667 ]
    mass: 183.840000
  - symbol: W  # 87
    coordinates: [  0.333333333333333,  0.333333333333333,  0.166666666666667 ]
    mass: 183.840000
  - symbol: W  # 88
    coordinates: [  0.500000000000000,  0.333333333333333,  0.166666666666667 ]
    mass: 183.840000
  - symbol: W  # 89
    coordinates: [  0.666666666666667,  0.333333333333333,  0.166666666666667 ]
    mass: 183.840000
  - symbol: W  # 90
    coordinates: [  0.833333333333333,  0.333333333333333,  0.166666666666667 ]
    mass: 183.840000
  - symbol: W  # 91
    coordinates: [  0.000000000000000,  0.500000000000000,  0.166666666666667 ]
    mass: 183.840000
  - symbol: W  # 92
    coordinates: [  0.166666666666667,  0.500000000000000,  0.166666666666667 ]
    mass: 183.840000
  - symbol: W  # 93
    coordinates: [  0.333333333333333,  0.500000000000000,  0.166666666666667 ]
    mass: 183.840000
  - symbol: W  # 94
    coordinates: [  0.500000000000000,  0.500000000000000,  0.166666666666667 ]
    mass: 183.840000
  - symbol: W  # 95
    coordinates: [  0.666666666666667,  0.500000000000000,  0.166666666666667 ]
    mass: 183.840000
  - symbol: W  # 96
    coordinates: [  0.833333333333333,  0.500000000000000,  0.166666666666667 ]
    mass: 183.840000
  - symbol: W  # 97
    coordinates: [  0.000000000000000,  0.666666666666667,  0.166666666666667 ]
    mass: 183.840000
  - symbol: W  # 98
    coordinates: [  0.166666666666667,  0.666666666666667,  0.166666666666667 ]
    mass: 183.840000
  - symbol: W  # 99
    coordinates: [  0.333333333333333,  0.666666666666667,  0.166666666666667 ]
    mass: 183.840000
  - symbol: W  # 100
    coordinates: [  0.500000000000000,  0.666666666666667,  0.166666666666667 ]
    mass: 183.840000
  - symbol: W  # 101
    coordinates: [  0.666666666666667,  0.666666666666667,  0.166666666666667 ]
    mass: 183.840000
  - symbol: W  # 102
    coordinates: [  0.833333333333333,  0.666666666666667,  0.166666666666667 ]
    mass: 183.840000
  - symbol: W  # 103
    coordinates: [  0.000000000000000,  0.833333333333333,  0.166666666666667 ]
    mass: 183.840000
  - symbol: W  # 104
    coordinates: [  0.166666666666667,  0.833333333333333,  0.166666666666667 ]
    mass: 183.840000
  - symbol: W  # 105
    coordinates: [  0.333333333333333,  0.833333333333333,  0.166666666666667 ]
    mass: 183.840000
  - symbol: W  # 106
    coordinates: [  0.500000000000000,  0.833333333333333,  0.166666666666667 ]
    mass: 183.840000
  - symbol: W  # 107
    coordinates: [  0.666666666666667,  0.833333333333333,  0.166666666666667 ]
    mass: 183.840000
  - symbol: W  # 108
    coordinates: [  0.833333333333333,  0.833333333333333,  0.166666666666667 ]
    mass: 183.840000
  - symbol: W  # 109
    coordinates: [  0.000000000000000,  0.000000000000000,  0.250000000000000 ]
    mass: 183.840000
  - symbol: W  # 110
    coordinates: [  0.166666666666667,  0.000000000000000,  0.250000000000000 ]
    mass: 183.840000
  - symbol: W  # 111
    coordinates: [  0.333333333333333,  0.000000000000000,  0.250000000000000 ]
    mass: 183.840000
  - symbol: W  # 112
    coordinates: [  0.500000000000000,  0.000000000000000,  0.250000000000000 ]
    mass: 183.840000
  - symbol: W  # 113
    coordinates: [  0.666666666666667,  0.000000000000000,  0.250000000000000 ]
    mass: 183.840000
  - symbol: W  # 114
    coordinates: [  0.833333333333333,  0.000000000000000,  0.250000000000000 ]
    mass: 183.840000
  - symbol: W  # 115
    coordinates: [  1.000000000000000,  0.166666666666667,  0.250000000000000 ]
    mass: 183.840000
  - symbol: W  # 116
    coordinates: [  0.166666666666667,  0.166666666666667,  0.250000000000000 ]
    mass: 183.840000
  - symbol: W  # 117
    coordinates: [  0.333333333333333,  0.166666666666667,  0.250000000000000 ]
    mass: 183.840000
  - symbol: W  # 118
    coordinates: [  0.500000000000000,  0.166666666666667,  0.250000000000000 ]
    mass: 183.840000
  - symbol: W  # 119
    coordinates: [  0.666666666666666,  0.166666666666667,  0.250000000000000 ]
    mass: 183.840000
  - symbol: W  # 120
    coordinates: [  0.833333333333333,  0.166666666666667,  0.250000000000000 ]
    mass: 183.840000
  - symbol: W  # 121
    coordinates: [  0.000000000000000,  0.333333333333333,  0.250000000000000 ]
    mass: 183.840000
  - symbol: W  # 122
    coordinates: [  0.166666666666667,  0.333333333333333,  0.250000000000000 ]
    mass: 183.840000
  - symbol: W  # 123
    coordinates: [  0.333333333333333,  0.333333333333333,  0.250000000000000 ]
    mass: 183.840000
  - symbol: W  # 124
    coordinates: [  0.500000000000000,  0.333333333333333,  0.250000000000000 ]
    mass: 183.840000
  - symbol: W  # 125
    coordinates: [  0.666666666666667,  0.333333333333333,  0.250000000000000 ]
    mass: 183.840000
  - symbol: W  # 126
    coordinates: [  0.833333333333333,  0.333333333333333,  0.250000000000000 ]
    mass: 183.840000
  - symbol: W  # 127
    coordinates: [  0.000000000000000,  0.500000000000000,  0.250000000000000 ]
    mass: 183.840000
  - symbol: W  # 128
    coordinates: [  0.166666666666667,  0.500000000000000,  0.250000000000000 ]
    mass: 183.840000
  - symbol: W  # 129
    coordinates: [  0.333333333333333,  0.500000000000000,  0.250000000000000 ]
    mass: 183.840000
  - symbol: W  # 130
    coordinates: [  0.500000000000000,  0.500000000000000,  0.250000000000000 ]
    mass: 183.840000
  - symbol: W  # 131
    coordinates: [  0.666666666666667,  0.500000000000000,  0.250000000000000 ]
    mass: 183.840000
  - symbol: W  # 132
    coordinates: [  0.833333333333333,  0.500000000000000,  0.250000000000000 ]
    mass: 183.840000
  - symbol: W  # 133
    coordinates: [  1.000000000000000,  0.666666666666667,  0.250000000000000 ]
    mass: 183.840000
  - symbol: W  # 134
    coordinates: [  0.166666666666667,  0.666666666666667,  0.250000000000000 ]
    mass: 183.840000
  - symbol: W  # 135
    coordinates: [  0.333333333333333,  0.666666666666667,  0.250000000000000 ]
    mass: 183.840000
  - symbol: W  # 136
    coordinates: [  0.500000000000000,  0.666666666666667,  0.250000000000000 ]
    mass: 183.840000
  - symbol: W  # 137
    coordinates: [  0.666666666666667,  0.666666666666667,  0.250000000000000 ]
    mass: 183.840000
  - symbol: W  # 138
    coordinates: [  0.833333333333333,  0.666666666666667,  0.250000000000000 ]
    mass: 183.840000
  - symbol: W  # 139
    coordinates: [  0.000000000000000,  0.833333333333333,  0.250000000000000 ]
    mass: 183.840000
  - symbol: W  # 140
    coordinates: [  0.166666666666667,  0.833333333333333,  0.250000000000000 ]
    mass: 183.840000
  - symbol: W  # 141
    coordinates: [  0.333333333333333,  0.833333333333333,  0.250000000000000 ]
    mass: 183.840000
  - symbol: W  # 142
    coordinates: [  0.500000000000000,  0.833333333333333,  0.250000000000000 ]
    mass: 183.840000
  - symbol: W  # 143
    coordinates: [  0.666666666666667,  0.833333333333333,  0.250000000000000 ]
    mass: 183.840000
  - symbol: W  # 144
    coordinates: [  0.833333333333333,  0.833333333333333,  0.250000000000000 ]
    mass: 183.840000
  - symbol: W  # 145
    coordinates: [  1.000000000000000,  0.000000000000000,  0.333333333333333 ]
    mass: 183.840000
  - symbol: W  # 146
    coordinates: [  0.166666666666667,  0.000000000000000,  0.333333333333333 ]
    mass: 183.840000
  - symbol: W  # 147
    coordinates: [  0.333333333333333,  0.000000000000000,  0.333333333333333 ]
    mass: 183.840000
  - symbol: W  # 148
    coordinates: [  0.500000000000000,  0.000000000000000,  0.333333333333333 ]
    mass: 183.840000
  - symbol: W  # 149
    coordinates: [  0.666666666666667,  0.000000000000000,  0.333333333333333 ]
    mass: 183.840000
  - symbol: W  # 150
    coordinates: [  0.833333333333333,  0.000000000000000,  0.333333333333333 ]
    mass: 183.840000
  - symbol: W  # 151
    coordinates: [  1.000000000000000,  0.166666666666667,  0.333333333333333 ]
    mass: 183.840000
  - symbol: W  # 152
    coordinates: [  0.166666666666667,  0.166666666666667,  0.333333333333333 ]
    mass: 183.840000
  - symbol: W  # 153
    coordinates: [  0.333333333333333,  0.166666666666667,  0.333333333333333 ]
    mass: 183.840000
  - symbol: W  # 154
    coordinates: [  0.500000000000000,  0.166666666666667,  0.333333333333333 ]
    mass: 183.840000
  - symbol: W  # 155
    coordinates: [  0.666666666666666,  0.166666666666667,  0.333333333333333 ]
    mass: 183.840000
  - symbol: W  # 156
    coordinates: [  0.833333333333333,  0.166666666666667,  0.333333333333333 ]
    mass: 183.840000
  - symbol: W  # 157
    coordinates: [  0.000000000000000,  0.333333333333333,  0.333333333333333 ]
    mass: 183.840000
  - symbol: W  # 158
    coordinates: [  0.166666666666667,  0.333333333333333,  0.333333333333333 ]
    mass: 183.840000
  - symbol: W  # 159
    coordinates: [  0.333333333333333,  0.333333333333333,  0.333333333333333 ]
    mass: 183.840000
  - symbol: W  # 160
    coordinates: [  0.500000000000000,  0.333333333333333,  0.333333333333333 ]
    mass: 183.840000
  - symbol: W  # 161
    coordinates: [  0.666666666666667,  0.333333333333333,  0.333333333333333 ]
    mass: 183.840000
  - symbol: W  # 162
    coordinates: [  0.833333333333333,  0.333333333333333,  0.333333333333333 ]
    mass: 183.840000
  - symbol: W  # 163
    coordinates: [  0.000000000000000,  0.500000000000000,  0.333333333333333 ]
    mass: 183.840000
  - symbol: W  # 164
    coordinates: [  0.166666666666667,  0.500000000000000,  0.333333333333333 ]
    mass: 183.840000
  - symbol: W  # 165
    coordinates: [  0.333333333333333,  0.500000000000000,  0.333333333333333 ]
    mass: 183.840000
  - symbol: W  # 166
    coordinates: [  0.500000000000000,  0.500000000000000,  0.333333333333333 ]
    mass: 183.840000
  - symbol: W  # 167
    coordinates: [  0.666666666666667,  0.500000000000000,  0.333333333333333 ]
    mass: 183.840000
  - symbol: W  # 168
    coordinates: [  0.833333333333333,  0.500000000000000,  0.333333333333333 ]
    mass: 183.840000
  - symbol: W  # 169
    coordinates: [  0.000000000000000,  0.666666666666667,  0.333333333333333 ]
    mass: 183.840000
  - symbol: W  # 170
    coordinates: [  0.166666666666667,  0.666666666666667,  0.333333333333333 ]
    mass: 183.840000
  - symbol: W  # 171
    coordinates: [  0.333333333333333,  0.666666666666667,  0.333333333333333 ]
    mass: 183.840000
  - symbol: W  # 172
    coordinates: [  0.500000000000000,  0.666666666666667,  0.333333333333333 ]
    mass: 183.840000
  - symbol: W  # 173
    coordinates: [  0.666666666666667,  0.666666666666667,  0.333333333333333 ]
    mass: 183.840000
  - symbol: W  # 174
    coordinates: [  0.833333333333333,  0.666666666666667,  0.333333333333333 ]
    mass: 183.840000
  - symbol: W  # 175
    coordinates: [  0.000000000000000,  0.833333333333333,  0.333333333333333 ]
    mass: 183.840000
  - symbol: W  # 176
    coordinates: [  0.166666666666667,  0.833333333333333,  0.333333333333333 ]
    mass: 183.840000
  - symbol: W  # 177
    coordinates: [  0.333333333333333,  0.833333333333333,  0.333333333333333 ]
    mass: 183.840000
  - symbol: W  # 178
    coordinates: [  0.500000000000000,  0.833333333333333,  0.333333333333333 ]
    mass: 183.840000
  - symbol: W  # 179
    coordinates: [  0.666666666666667,  0.833333333333333,  0.333333333333333 ]
    mass: 183.840000
  - symbol: W  # 180
    coordinates: [  0.833333333333333,  0.833333333333333,  0.333333333333333 ]
    mass: 183.840000
  - symbol: W  # 181
    coordinates: [  1.000000000000000,  0.000000000000000,  0.416666666666667 ]
    mass: 183.840000
  - symbol: W  # 182
    coordinates: [  0.166666666666667,  0.000000000000000,  0.416666666666667 ]
    mass: 183.840000
  - symbol: W  # 183
    coordinates: [  0.333333333333333,  0.000000000000000,  0.416666666666667 ]
    mass: 183.840000
  - symbol: W  # 184
    coordinates: [  0.500000000000000,  0.000000000000000,  0.416666666666667 ]
    mass: 183.840000
  - symbol: W  # 185
    coordinates: [  0.666666666666666,  0.000000000000000,  0.416666666666667 ]
    mass: 183.840000
  - symbol: W  # 186
    coordinates: [  0.833333333333333,  0.000000000000000,  0.416666666666667 ]
    mass: 183.840000
  - symbol: W  # 187
    coordinates: [  1.000000000000000,  0.166666666666667,  0.416666666666667 ]
    mass: 183.840000
  - symbol: W  # 188
    coordinates: [  0.166666666666667,  0.166666666666667,  0.416666666666667 ]
    mass: 183.840000
  - symbol: W  # 189
    coordinates: [  0.333333333333333,  0.166666666666667,  0.416666666666667 ]
    mass: 183.840000
  - symbol: W  # 190
    coordinates: [  0.500000000000000,  0.166666666666667,  0.416666666666667 ]
    mass: 183.840000
  - symbol: W  # 191
    coordinates: [  0.666666666666666,  0.166666666666667,  0.416666666666667 ]
    mass: 183.840000
  - symbol: W  # 192
    coordinates: [  0.833333333333333,  0.166666666666667,  0.416666666666667 ]
    mass: 183.840000
  - symbol: W  # 193
    coordinates: [  1.000000000000000,  0.333333333333333,  0.416666666666667 ]
    mass: 183.840000
  - symbol: W  # 194
    coordinates: [  0.166666666666667,  0.333333333333333,  0.416666666666667 ]
    mass: 183.840000
  - symbol: W  # 195
    coordinates: [  0.333333333333333,  0.333333333333333,  0.416666666666667 ]
    mass: 183.840000
  - symbol: W  # 196
    coordinates: [  0.500000000000000,  0.333333333333333,  0.416666666666667 ]
    mass: 183.840000
  - symbol: W  # 197
    coordinates: [  0.666666666666667,  0.333333333333333,  0.416666666666667 ]
    mass: 183.840000
  - symbol: W  # 198
    coordinates: [  0.833333333333333,  0.333333333333333,  0.416666666666667 ]
    mass: 183.840000
  - symbol: W  # 199
    coordinates: [  0.000000000000000,  0.500000000000000,  0.416666666666667 ]
    mass: 183.840000
  - symbol: W  # 200
    coordinates: [  0.166666666666667,  0.500000000000000,  0.416666666666667 ]
    mass: 183.840000
  - symbol: W  # 201
    coordinates: [  0.333333333333333,  0.500000000000000,  0.416666666666667 ]
    mass: 183.840000
  - symbol: W  # 202
    coordinates: [  0.500000000000000,  0.500000000000000,  0.416666666666667 ]
    mass: 183.840000
  - symbol: W  # 203
    coordinates: [  0.666666666666667,  0.500000000000000,  0.416666666666667 ]
    mass: 183.840000
  - symbol: W  # 204
    coordinates: [  0.833333333333333,  0.500000000000000,  0.416666666666667 ]
    mass: 183.840000
  - symbol: W  # 205
    coordinates: [  1.000000000000000,  0.666666666666667,  0.416666666666667 ]
    mass: 183.840000
  - symbol: W  # 206
    coordinates: [  0.166666666666667,  0.666666666666667,  0.416666666666667 ]
    mass: 183.840000
  - symbol: W  # 207
    coordinates: [  0.333333333333333,  0.666666666666667,  0.416666666666667 ]
    mass: 183.840000
  - symbol: W  # 208
    coordinates: [  0.500000000000000,  0.666666666666667,  0.416666666666667 ]
    mass: 183.840000
  - symbol: W  # 209
    coordinates: [  0.666666666666667,  0.666666666666667,  0.416666666666667 ]
    mass: 183.840000
  - symbol: W  # 210
    coordinates: [  0.833333333333333,  0.666666666666667,  0.416666666666667 ]
    mass: 183.840000
  - symbol: W  # 211
    coordinates: [  1.000000000000000,  0.833333333333333,  0.416666666666667 ]
    mass: 183.840000
  - symbol: W  # 212
    coordinates: [  0.166666666666667,  0.833333333333333,  0.416666666666667 ]
    mass: 183.840000
  - symbol: W  # 213
    coordinates: [  0.333333333333333,  0.833333333333333,  0.416666666666667 ]
    mass: 183.840000
  - symbol: W  # 214
    coordinates: [  0.500000000000000,  0.833333333333333,  0.416666666666667 ]
    mass: 183.840000
  - symbol: W  # 215
    coordinates: [  0.666666666666667,  0.833333333333333,  0.416666666666667 ]
    mass: 183.840000
  - symbol: W  # 216
    coordinates: [  0.833333333333333,  0.833333333333333,  0.416666666666667 ]
    mass: 183.840000
  - symbol: W  # 217
    coordinates: [  0.000000000000000,  0.000000000000000,  0.500000000000000 ]
    mass: 183.840000
  - symbol: W  # 218
    coordinates: [  0.166666666666667,  0.000000000000000,  0.500000000000000 ]
    mass: 183.840000
  - symbol: W  # 219
    coordinates: [  0.333333333333333,  0.000000000000000,  0.500000000000000 ]
    mass: 183.840000
  - symbol: W  # 220
    coordinates: [  0.500000000000000,  0.000000000000000,  0.500000000000000 ]
    mass: 183.840000
  - symbol: W  # 221
    coordinates: [  0.666666666666667,  0.000000000000000,  0.500000000000000 ]
    mass: 183.840000
  - symbol: W  # 222
    coordinates: [  0.833333333333333,  0.000000000000000,  0.500000000000000 ]
    mass: 183.840000
  - symbol: W  # 223
    coordinates: [  1.000000000000000,  0.166666666666667,  0.500000000000000 ]
    mass: 183.840000
  - symbol: W  # 224
    coordinates: [  0.166666666666667,  0.166666666666667,  0.500000000000000 ]
    mass: 183.840000
  - symbol: W  # 225
    coordinates: [  0.333333333333333,  0.166666666666667,  0.500000000000000 ]
    mass: 183.840000
  - symbol: W  # 226
    coordinates: [  0.500000000000000,  0.166666666666667,  0.500000000000000 ]
    mass: 183.840000
  - symbol: W  # 227
    coordinates: [  0.666666666666666,  0.166666666666667,  0.500000000000000 ]
    mass: 183.840000
  - symbol: W  # 228
    coordinates: [  0.833333333333333,  0.166666666666667,  0.500000000000000 ]
    mass: 183.840000
  - symbol: W  # 229
    coordinates: [  0.000000000000000,  0.333333333333333,  0.500000000000000 ]
    mass: 183.840000
  - symbol: W  # 230
    coordinates: [  0.166666666666667,  0.333333333333333,  0.500000000000000 ]
    mass: 183.840000
  - symbol: W  # 231
    coordinates: [  0.333333333333333,  0.333333333333333,  0.500000000000000 ]
    mass: 183.840000
  - symbol: W  # 232
    coordinates: [  0.500000000000000,  0.333333333333333,  0.500000000000000 ]
    mass: 183.840000
  - symbol: W  # 233
    coordinates: [  0.666666666666667,  0.333333333333333,  0.500000000000000 ]
    mass: 183.840000
  - symbol: W  # 234
    coordinates: [  0.833333333333333,  0.333333333333333,  0.500000000000000 ]
    mass: 183.840000
  - symbol: W  # 235
    coordinates: [  0.000000000000000,  0.500000000000000,  0.500000000000000 ]
    mass: 183.840000
  - symbol: W  # 236
    coordinates: [  0.166666666666667,  0.500000000000000,  0.500000000000000 ]
    mass: 183.840000
  - symbol: W  # 237
    coordinates: [  0.333333333333333,  0.500000000000000,  0.500000000000000 ]
    mass: 183.840000
  - symbol: W  # 238
    coordinates: [  0.500000000000000,  0.500000000000000,  0.500000000000000 ]
    mass: 183.840000
  - symbol: W  # 239
    coordinates: [  0.666666666666667,  0.500000000000000,  0.500000000000000 ]
    mass: 183.840000
  - symbol: W  # 240
    coordinates: [  0.833333333333333,  0.500000000000000,  0.500000000000000 ]
    mass: 183.840000
  - symbol: W  # 241