LAMMPS data file via write_data, version 28 Mar 2023, timestep = 1

2 atoms
1 atom types

0 3.186185 xlo xhi
0 3.186185 ylo yhi
0 3.186185 zlo zhi
0 0 0 xy xz yz

Masses

1 183.84

Atoms # atomic

1 1 0 0 0 0 0 0
2 1 1.5930925 1.5930925 1.5930925 0 0 0

Velocities

1 0 0 0
2 0 0 0
