# LAMMPS data file written by OVITO Pro 3.7.5
16 atoms
2 atom types
0.0 5.931137251 xlo xhi
0.0 5.931137251 ylo yhi
0.0 5.931137251 zlo zhi
1.0e-15 4.0e-16 4.0e-16 xy xz yz

Masses

1 63.546  # Cu
2 183.84  # W

Atoms  # atomic

1 1 2.9655686255 4.4151840398e-48 0.0
2 1 1.4827843128 1.4827843128 1.4827843128
3 1 4.4483529383 1.4827843128 1.4827843128
4 1 2.9655686255 2.9655686255 2.9655686255
5 1 2.0e-16 2.0e-16 2.9655686255
6 1 1.4827843128 1.4827843128 4.4483529383
7 1 5.0e-16 2.9655686255 0.0
8 1 1.4827843128 4.4483529383 1.4827843128
9 1 1.4827843128 4.4483529383 4.4483529383
10 1 4.4483529383 4.4483529383 4.4483529383
11 1 4.4483529383 1.4827843128 4.4483529383
12 1 4.4483529383 4.4483529383 1.4827843128
13 2 7.0e-16 2.9655686255 2.9655686255
14 2 2.9655686255 2.0e-16 2.9655686255
15 2 2.9655686255 2.9655686255 0.0
16 2 0.0 0.0 0.0

Velocities

1 0.0 0.0 0.0
2 0.0 0.0 0.0
3 0.0 0.0 0.0
4 0.0 0.0 0.0
5 0.0 0.0 0.0
6 0.0 0.0 0.0
7 0.0 0.0 0.0
8 0.0 0.0 0.0
9 0.0 0.0 0.0
10 0.0 0.0 0.0
11 0.0 0.0 0.0
12 0.0 0.0 0.0
13 0.0 0.0 0.0
14 0.0 0.0 0.0
15 0.0 0.0 0.0
16 0.0 0.0 0.0
