# LAMMPS data file written by OVITO Pro 3.7.5
2 atoms
2 atom types
0.0 3.04 xlo xhi
0.0 3.04 ylo yhi
0.0 3.04 zlo zhi

Masses

1 63.546  # Cu
2 183.84  # W

Atoms  # atomic

1 1 0.0 0.0 0.0
2 2 1.52 1.52 1.52
