# LAMMPS data file written by OVITO Pro 3.7.5
16 atoms
2 atom types
0.0 5.903346648 xlo xhi
0.0 5.903346648 ylo yhi
0.0 5.903346648 zlo zhi
1.0e-15 4.0e-16 4.0e-16 xy xz yz

Masses

1 63.546  # Cu
2 183.84  # W

Atoms  # atomic

1 1 2.951673324 4.3944965019e-48 0.0
2 1 0.0 0.0 0.0
3 1 1.475836662 1.475836662 1.475836662
4 1 4.427509986 1.475836662 1.475836662
5 1 2.951673324 2.951673324 2.951673324
6 1 2.0e-16 2.0e-16 2.951673324
7 1 1.475836662 1.475836662 4.427509986
8 1 5.0e-16 2.951673324 0.0
9 1 1.475836662 4.427509986 1.475836662
10 1 1.475836662 4.427509986 4.427509986
11 1 4.427509986 4.427509986 4.427509986
12 1 4.427509986 1.475836662 4.427509986
13 1 4.427509986 4.427509986 1.475836662
14 2 7.0e-16 2.951673324 2.951673324
15 2 2.951673324 2.0e-16 2.951673324
16 2 2.951673324 2.951673324 0.0

Velocities

1 0.0 0.0 0.0
2 0.0 0.0 0.0
3 0.0 0.0 0.0
4 0.0 0.0 0.0
5 0.0 0.0 0.0
6 0.0 0.0 0.0
7 0.0 0.0 0.0
8 0.0 0.0 0.0
9 0.0 0.0 0.0
10 0.0 0.0 0.0
11 0.0 0.0 0.0
12 0.0 0.0 0.0
13 0.0 0.0 0.0
14 0.0 0.0 0.0
15 0.0 0.0 0.0
16 0.0 0.0 0.0
