# LAMMPS data file written by OVITO Pro 3.7.5
16 atoms
2 atom types
0.0 6.264215339 xlo xhi
0.0 6.264215339 ylo yhi
0.0 6.264215339 zlo zhi
1.0e-15 4.0e-16 4.0e-16 xy xz yz

Masses

1 63.546  # Cu
2 183.84  # W

Atoms  # atomic

1 1 7.0e-16 3.1321076695 3.1321076695
2 1 3.1321076695 2.0e-16 3.1321076695
3 1 3.1321076695 3.1321076695 0.0
4 1 0.0 0.0 0.0
5 2 3.1321076695 4.663129922e-48 0.0
6 2 1.5660538348 1.5660538347 1.5660538347
7 2 4.6981615042 1.5660538347 1.5660538347
8 2 3.1321076695 3.1321076695 3.1321076695
9 2 2.0e-16 2.0e-16 3.1321076695
10 2 1.5660538348 1.5660538348 4.6981615042
11 2 5.0e-16 3.1321076695 0.0
12 2 1.5660538348 4.6981615042 1.5660538347
13 2 1.5660538348 4.6981615042 4.6981615042
14 2 4.6981615043 4.6981615042 4.6981615042
15 2 4.6981615042 1.5660538348 4.6981615042
16 2 4.6981615043 4.6981615042 1.5660538347

Velocities

1 0.0 0.0 0.0
2 0.0 0.0 0.0
3 0.0 0.0 0.0
4 0.0 0.0 0.0
5 0.0 0.0 0.0
6 0.0 0.0 0.0
7 0.0 0.0 0.0
8 0.0 0.0 0.0
9 0.0 0.0 0.0
10 0.0 0.0 0.0
11 0.0 0.0 0.0
12 0.0 0.0 0.0
13 0.0 0.0 0.0
14 0.0 0.0 0.0
15 0.0 0.0 0.0
16 0.0 0.0 0.0
