# LAMMPS data file written by OVITO Pro 3.7.5
16 atoms
2 atom types
0.0 6.053932852 xlo xhi
0.0 6.053932852 ylo yhi
0.0 6.053932852 zlo zhi
1.0e-15 4.0e-16 4.0e-16 xy xz yz

Masses

1 63.546  # Cu
2 183.84  # W

Atoms  # atomic

1 1 1.513483213 1.513483213 1.513483213
2 1 4.540449639 1.513483213 1.513483213
3 1 1.513483213 1.513483213 4.540449639
4 1 5.0e-16 3.026966426 0.0
5 1 1.513483213 4.540449639 1.513483213
6 1 1.513483213 4.540449639 4.540449639
7 1 4.540449639 4.540449639 4.540449639
8 1 4.540449639 1.513483213 4.540449639
9 1 4.540449639 4.540449639 1.513483213
10 2 3.026966426 3.026966426 0.0
11 2 3.026966426 3.026966426 3.026966426
12 2 0.0 0.0 0.0
13 2 7.0e-16 3.026966426 3.026966426
14 2 3.026966426 2.0e-16 3.026966426
15 2 2.0e-16 2.0e-16 3.026966426
16 2 3.026966426 4.5065940266e-48 0.0

Velocities

1 0.0 0.0 0.0
2 0.0 0.0 0.0
3 0.0 0.0 0.0
4 0.0 0.0 0.0
5 0.0 0.0 0.0
6 0.0 0.0 0.0
7 0.0 0.0 0.0
8 0.0 0.0 0.0
9 0.0 0.0 0.0
10 0.0 0.0 0.0
11 0.0 0.0 0.0
12 0.0 0.0 0.0
13 0.0 0.0 0.0
14 0.0 0.0 0.0
15 0.0 0.0 0.0
16 0.0 0.0 0.0
