# LAMMPS data file written by OVITO Pro 3.7.5
16 atoms
2 atom types
0.0 6.020228715 xlo xhi
0.0 6.020228715 ylo yhi
0.0 6.020228715 zlo zhi
1.0e-15 4.0e-16 4.0e-16 xy xz yz

Masses

1 63.546  # Cu
2 183.84  # W

Atoms  # atomic

1 1 3.0101143575 4.4815044086e-48 0.0
2 1 1.5050571788 1.5050571788 1.5050571788
3 1 4.5151715362 1.5050571788 1.5050571788
4 1 1.5050571788 1.5050571788 4.5151715362
5 1 5.0e-16 3.0101143575 0.0
6 1 1.5050571788 4.5151715362 1.5050571788
7 1 1.5050571788 4.5151715362 4.5151715362
8 1 4.5151715363 4.5151715362 4.5151715362
9 1 4.5151715362 1.5050571788 4.5151715362
10 1 4.5151715363 4.5151715362 1.5050571788
11 2 3.0101143575 3.0101143575 0.0
12 2 3.0101143575 3.0101143575 3.0101143575
13 2 0.0 0.0 0.0
14 2 7.0e-16 3.0101143575 3.0101143575
15 2 3.0101143575 2.0e-16 3.0101143575
16 2 2.0e-16 2.0e-16 3.0101143575

Velocities

1 0.0 0.0 0.0
2 0.0 0.0 0.0
3 0.0 0.0 0.0
4 0.0 0.0 0.0
5 0.0 0.0 0.0
6 0.0 0.0 0.0
7 0.0 0.0 0.0
8 0.0 0.0 0.0
9 0.0 0.0 0.0
10 0.0 0.0 0.0
11 0.0 0.0 0.0
12 0.0 0.0 0.0
13 0.0 0.0 0.0
14 0.0 0.0 0.0
15 0.0 0.0 0.0
16 0.0 0.0 0.0
