# LAMMPS data file written by OVITO Pro 3.7.5
16 atoms
2 atom types
0.0 5.978236454 xlo xhi
0.0 5.978236454 ylo yhi
0.0 5.978236454 zlo zhi
1.0e-15 4.0e-16 4.0e-16 xy xz yz

Masses

1 63.546  # Cu
2 183.84  # W

Atoms  # atomic

1 1 2.989118227 4.4502450476e-48 0.0
2 1 1.4945591135 1.4945591135 1.4945591135
3 1 4.4836773405 1.4945591135 1.4945591135
4 1 2.0e-16 2.0e-16 2.989118227
5 1 1.4945591135 1.4945591135 4.4836773405
6 1 5.0e-16 2.989118227 0.0
7 1 1.4945591135 4.4836773405 1.4945591135
8 1 1.4945591135 4.4836773405 4.4836773405
9 1 4.4836773405 4.4836773405 4.4836773405
10 1 4.4836773405 1.4945591135 4.4836773405
11 1 4.4836773405 4.4836773405 1.4945591135
12 2 2.989118227 2.989118227 0.0
13 2 2.989118227 2.989118227 2.989118227
14 2 0.0 0.0 0.0
15 2 7.0e-16 2.989118227 2.989118227
16 2 2.989118227 2.0e-16 2.989118227

Velocities

1 0.0 0.0 0.0
2 0.0 0.0 0.0
3 0.0 0.0 0.0
4 0.0 0.0 0.0
5 0.0 0.0 0.0
6 0.0 0.0 0.0
7 0.0 0.0 0.0
8 0.0 0.0 0.0
9 0.0 0.0 0.0
10 0.0 0.0 0.0
11 0.0 0.0 0.0
12 0.0 0.0 0.0
13 0.0 0.0 0.0
14 0.0 0.0 0.0
15 0.0 0.0 0.0
16 0.0 0.0 0.0
