# LAMMPS data file written by OVITO Pro 3.7.5
16 atoms
2 atom types
0.0 6.180081057 xlo xhi
0.0 6.180081057 ylo yhi
0.0 6.180081057 zlo zhi
1.0e-15 4.0e-16 4.0e-16 xy xz yz

Masses

1 63.546  # Cu
2 183.84  # W

Atoms  # atomic

1 1 3.0900405285 3.0900405285 0.0
2 1 3.0900405285 3.0900405285 3.0900405285
3 1 0.0 0.0 0.0
4 1 7.0e-16 3.0900405285 3.0900405285
5 1 3.0900405285 2.0e-16 3.0900405285
6 1 2.0e-16 2.0e-16 3.0900405285
7 2 3.0900405285 4.6004997175e-48 0.0
8 2 1.5450202643 1.5450202642 1.5450202642
9 2 4.6350607928 1.5450202642 1.5450202642
10 2 1.5450202643 1.5450202643 4.6350607928
11 2 5.0e-16 3.0900405285 0.0
12 2 1.5450202643 4.6350607928 1.5450202642
13 2 1.5450202643 4.6350607928 4.6350607928
14 2 4.6350607928 4.6350607928 4.6350607928
15 2 4.6350607928 1.5450202643 4.6350607928
16 2 4.6350607928 4.6350607928 1.5450202642

Velocities

1 0.0 0.0 0.0
2 0.0 0.0 0.0
3 0.0 0.0 0.0
4 0.0 0.0 0.0
5 0.0 0.0 0.0
6 0.0 0.0 0.0
7 0.0 0.0 0.0
8 0.0 0.0 0.0
9 0.0 0.0 0.0
10 0.0 0.0 0.0
11 0.0 0.0 0.0
12 0.0 0.0 0.0
13 0.0 0.0 0.0
14 0.0 0.0 0.0
15 0.0 0.0 0.0
16 0.0 0.0 0.0
