# LAMMPS data file written by OVITO Pro 3.7.5
16 atoms
2 atom types
0.0 6.3340427772 xlo xhi
0.0 6.3340427772 ylo yhi
0.0 6.3340427772 zlo zhi
1.0e-15 4.0e-16 4.0e-16 xy xz yz

Masses

1 63.546  # Cu
2 183.84  # W

Atoms  # atomic

1 1 0.0 0.0 0.0
2 2 3.1670213886 3.1670213886 3.1670213886
3 2 1.5835106943 1.5835106943 1.5835106943
4 2 1.5835106943 4.7505320829 4.7505320829
5 2 4.7505320829 4.7505320829 1.5835106943
6 2 4.7505320829 1.5835106943 4.7505320829
7 2 4.7505320829 1.5835106943 1.5835106943
8 2 7.0e-16 3.1670213886 3.1670213886
9 2 1.5835106943 1.5835106943 4.7505320829
10 2 5.0e-16 3.1670213886 0.0
11 2 1.5835106943 4.7505320829 1.5835106943
12 2 3.1670213886 4.7151100023e-48 0.0
13 2 2.0e-16 2.0e-16 3.1670213886
14 2 3.1670213886 2.0e-16 3.1670213886
15 2 3.1670213886 3.1670213886 0.0
16 2 4.7505320829 4.7505320829 4.7505320829

Velocities

1 0.0 0.0 0.0
2 0.0 0.0 0.0
3 0.0 0.0 0.0
4 0.0 0.0 0.0
5 0.0 0.0 0.0
6 0.0 0.0 0.0
7 0.0 0.0 0.0
8 0.0 0.0 0.0
9 0.0 0.0 0.0
10 0.0 0.0 0.0
11 0.0 0.0 0.0
12 0.0 0.0 0.0
13 0.0 0.0 0.0
14 0.0 0.0 0.0
15 0.0 0.0 0.0
16 0.0 0.0 0.0
