# LAMMPS data file written by OVITO Pro 3.7.5
16 atoms
2 atom types
0.0 6.301105652 xlo xhi
0.0 6.301105652 ylo yhi
0.0 6.301105652 zlo zhi
1.0e-15 4.0e-16 4.0e-16 xy xz yz

Masses

1 63.546  # Cu
2 183.84  # W

Atoms  # atomic

1 1 7.0e-16 3.150552826 3.150552826
2 1 3.150552826 2.0e-16 3.150552826
3 1 3.150552826 3.150552826 0.0
4 2 3.150552826 4.6905913538e-48 0.0
5 2 0.0 0.0 0.0
6 2 1.575276413 1.575276413 1.575276413
7 2 4.725829239 1.575276413 1.575276413
8 2 3.150552826 3.150552826 3.150552826
9 2 2.0e-16 2.0e-16 3.150552826
10 2 1.575276413 1.575276413 4.725829239
11 2 5.0e-16 3.150552826 0.0
12 2 1.575276413 4.725829239 1.575276413
13 2 1.575276413 4.725829239 4.725829239
14 2 4.725829239 4.725829239 4.725829239
15 2 4.725829239 1.575276413 4.725829239
16 2 4.725829239 4.725829239 1.575276413

Velocities

1 0.0 0.0 0.0
2 0.0 0.0 0.0
3 0.0 0.0 0.0
4 0.0 0.0 0.0
5 0.0 0.0 0.0
6 0.0 0.0 0.0
7 0.0 0.0 0.0
8 0.0 0.0 0.0
9 0.0 0.0 0.0
10 0.0 0.0 0.0
11 0.0 0.0 0.0
12 0.0 0.0 0.0
13 0.0 0.0 0.0
14 0.0 0.0 0.0
15 0.0 0.0 0.0
16 0.0 0.0 0.0
