# LAMMPS data file written by OVITO Pro 3.7.5
16 atoms
2 atom types
0.0 6.22368 xlo xhi
0.0 6.22368 ylo yhi
0.0 6.22368 zlo zhi
1.0e-15 4.0e-16 4.0e-16 xy xz yz

Masses

1 63.546  # Cu
2 183.84  # W

Atoms  # atomic

1 1 3.11184 3.11184 0.0
2 1 3.11184 3.11184 3.11184
3 1 0.0 0.0 0.0
4 1 7.0e-16 3.11184 3.11184
5 1 3.11184 2.0e-16 3.11184
6 2 3.11184 4.6329551049e-48 0.0
7 2 1.55592 1.55592 1.55592
8 2 4.66776 1.55592 1.55592
9 2 2.0e-16 2.0e-16 3.11184
10 2 1.55592 1.55592 4.66776
11 2 5.0e-16 3.11184 0.0
12 2 1.55592 4.66776 1.55592
13 2 1.55592 4.66776 4.66776
14 2 4.66776 4.66776 4.66776
15 2 4.66776 1.55592 4.66776
16 2 4.66776 4.66776 1.55592

Velocities

1 0.0 0.0 0.0
2 0.0 0.0 0.0
3 0.0 0.0 0.0
4 0.0 0.0 0.0
5 0.0 0.0 0.0
6 0.0 0.0 0.0
7 0.0 0.0 0.0
8 0.0 0.0 0.0
9 0.0 0.0 0.0
10 0.0 0.0 0.0
11 0.0 0.0 0.0
12 0.0 0.0 0.0
13 0.0 0.0 0.0
14 0.0 0.0 0.0
15 0.0 0.0 0.0
16 0.0 0.0 0.0
