# LAMMPS data file written by OVITO Basic 3.4.4
1 atoms
2 atom types
0.0 2.7551851188 xlo xhi
0.0 2.5976134412 ylo yhi
0.0 2.2495992293 zlo zhi
-0.9183950396 -0.9183950396 -1.2988067206 xy xz yz

Masses

1 63.546  # Cu
2 183.84  # W

Atoms  # atomic

1 2 0.0 0.0 0.0
