# LAMMPS data file written by OVITO Pro 3.7.5
16 atoms
2 atom types
0.0 6.3222 xlo xhi
0.0 6.3222 ylo yhi
0.0 6.3222 zlo zhi

Masses

1 63.546  # Cu
2 183.84  # W

Atoms  # atomic

1 1 0.0 0.0 0.0
2 1 3.1611 3.1611 3.1611
3 2 1.58055 1.58055 1.58055
4 2 1.58055 4.74165 4.74165
5 2 4.74165 4.74165 1.58055
6 2 4.74165 1.58055 4.74165
7 2 4.74165 1.58055 1.58055
8 2 -1.5585426297e-31 3.1611 3.1611
9 2 1.58055 1.58055 4.74165
10 2 -7.7927131484e-32 3.1611 0.0
11 2 1.58055 4.74165 1.58055
12 2 3.1611 4.7062941482e-48 0.0
13 2 -3.8963565742e-32 -3.8963565742e-32 3.1611
14 2 3.1611 -3.8963565742e-32 3.1611
15 2 3.1611 3.1611 0.0
16 2 4.74165 4.74165 4.74165

Velocities

1 0.0 0.0 0.0
2 0.0 0.0 0.0
3 0.0 0.0 0.0
4 0.0 0.0 0.0
5 0.0 0.0 0.0
6 0.0 0.0 0.0
7 0.0 0.0 0.0
8 0.0 0.0 0.0
9 0.0 0.0 0.0
10 0.0 0.0 0.0
11 0.0 0.0 0.0
12 0.0 0.0 0.0
13 0.0 0.0 0.0
14 0.0 0.0 0.0
15 0.0 0.0 0.0
16 0.0 0.0 0.0
