# LAMMPS data file written by OVITO Pro 3.7.5
16 atoms
2 atom types
0.0 5.8856254404 xlo xhi
0.0 5.8856254404 ylo yhi
0.0 5.8856254404 zlo zhi
1.0e-15 4.0e-16 4.0e-16 xy xz yz

Masses

1 63.546  # Cu
2 183.84  # W

Atoms  # atomic

1 1 1.4714063601 1.4714063601 1.4714063601
2 1 1.4714063601 4.4142190803 4.4142190803
3 1 4.4142190803 4.4142190803 1.4714063601
4 1 4.4142190803 1.4714063601 4.4142190803
5 1 4.4142190803 1.4714063601 1.4714063601
6 1 7.0e-16 2.9428127202 2.9428127202
7 1 1.4714063601 1.4714063601 4.4142190803
8 1 5.0e-16 2.9428127202 0.0
9 1 1.4714063601 4.4142190803 1.4714063601
10 1 2.9428127202 4.3813046991e-48 0.0
11 1 2.0e-16 2.0e-16 2.9428127202
12 1 2.9428127202 2.0e-16 2.9428127202
13 1 2.9428127202 2.9428127202 0.0
14 1 4.4142190803 4.4142190803 4.4142190803
15 2 0.0 0.0 0.0
16 2 2.9428127202 2.9428127202 2.9428127202

Velocities

1 0.0 0.0 0.0
2 0.0 0.0 0.0
3 0.0 0.0 0.0
4 0.0 0.0 0.0
5 0.0 0.0 0.0
6 0.0 0.0 0.0
7 0.0 0.0 0.0
8 0.0 0.0 0.0
9 0.0 0.0 0.0
10 0.0 0.0 0.0
11 0.0 0.0 0.0
12 0.0 0.0 0.0
13 0.0 0.0 0.0
14 0.0 0.0 0.0
15 0.0 0.0 0.0
16 0.0 0.0 0.0
