# LAMMPS data file written by OVITO Pro 3.7.5
16 atoms
2 atom types
0.0 5.8294253784 xlo xhi
0.0 5.8294253784 ylo yhi
0.0 5.8294253784 zlo zhi
1.0e-15 4.0e-16 4.0e-16 xy xz yz

Masses

1 63.546  # Cu
2 183.84  # W

Atoms  # atomic

1 1 2.9147126892 2.9147126892 2.9147126892
2 1 1.4573563446 1.4573563446 1.4573563446
3 1 1.4573563446 4.3720690338 4.3720690338
4 1 4.3720690338 4.3720690338 1.4573563446
5 1 4.3720690338 1.4573563446 4.3720690338
6 1 4.3720690338 1.4573563446 1.4573563446
7 1 7.0e-16 2.9147126892 2.9147126892
8 1 1.4573563446 1.4573563446 4.3720690338
9 1 5.0e-16 2.9147126892 0.0
10 1 1.4573563446 4.3720690338 1.4573563446
11 1 2.9147126892 4.3394689421e-48 0.0
12 1 2.0e-16 2.0e-16 2.9147126892
13 1 2.9147126892 2.0e-16 2.9147126892
14 1 2.9147126892 2.9147126892 0.0
15 1 4.3720690338 4.3720690338 4.3720690338
16 2 0.0 0.0 0.0

Velocities

1 0.0 0.0 0.0
2 0.0 0.0 0.0
3 0.0 0.0 0.0
4 0.0 0.0 0.0
5 0.0 0.0 0.0
6 0.0 0.0 0.0
7 0.0 0.0 0.0
8 0.0 0.0 0.0
9 0.0 0.0 0.0
10 0.0 0.0 0.0
11 0.0 0.0 0.0
12 0.0 0.0 0.0
13 0.0 0.0 0.0
14 0.0 0.0 0.0
15 0.0 0.0 0.0
16 0.0 0.0 0.0
