# LAMMPS data file written by OVITO Pro 3.7.5
16 atoms
2 atom types
0.0 6.133107348 xlo xhi
0.0 6.133107348 ylo yhi
0.0 6.133107348 zlo zhi
1.0e-15 4.0e-16 4.0e-16 xy xz yz

Masses

1 63.546  # Cu
2 183.84  # W

Atoms  # atomic

1 1 3.066553674 3.066553674 0.0
2 1 3.066553674 3.066553674 3.066553674
3 1 0.0 0.0 0.0
4 1 7.0e-16 3.066553674 3.066553674
5 1 3.066553674 2.0e-16 3.066553674
6 1 2.0e-16 2.0e-16 3.066553674
7 1 3.066553674 4.5655321284e-48 0.0
8 2 1.533276837 1.533276837 1.533276837
9 2 4.599830511 1.533276837 1.533276837
10 2 1.533276837 1.533276837 4.599830511
11 2 5.0e-16 3.066553674 0.0
12 2 1.533276837 4.599830511 1.533276837
13 2 1.533276837 4.599830511 4.599830511
14 2 4.599830511 4.599830511 4.599830511
15 2 4.599830511 1.533276837 4.599830511
16 2 4.599830511 4.599830511 1.533276837

Velocities

1 0.0 0.0 0.0
2 0.0 0.0 0.0
3 0.0 0.0 0.0
4 0.0 0.0 0.0
5 0.0 0.0 0.0
6 0.0 0.0 0.0
7 0.0 0.0 0.0
8 0.0 0.0 0.0
9 0.0 0.0 0.0
10 0.0 0.0 0.0
11 0.0 0.0 0.0
12 0.0 0.0 0.0
13 0.0 0.0 0.0
14 0.0 0.0 0.0
15 0.0 0.0 0.0
16 0.0 0.0 0.0
