# LAMMPS data file written by OVITO Basic 3.4.4
215 atoms
1 atom types
-1.8364103328 14.6912826626 xlo xhi
-2.5970763988 12.9853819938 ylo yhi
-4.4982682738 8.9965365476 zlo zhi
-5.5092309985 -5.5092309985 -7.7912291963 xy xz yz

Atoms  # atomic

1 1 -1.8364103328 -2.5970763988 -4.4982682738
2 1 -2.7546154992 -3.8956145981 -2.2491341369
3 1 -3.6728206657 -5.1941527975 0.0
4 1 -4.5910258321 -6.4926909969 2.2491341369
5 1 -5.5092309985 -7.7912291963 4.4982682738
6 1 -6.4274361649 -9.0897673957 6.7474024107
7 1 -2.7546154992 -2.2204460493e-15 -4.4982682738
8 1 -3.6728206657 -1.2985381994 -2.2491341369
9 1 -4.5910258321 -2.5970763988 0.0
10 1 -5.5092309985 -3.8956145981 2.2491341369
11 1 -6.4274361649 -5.1941527975 4.4982682738
12 1 -7.3456413313 -6.4926909969 6.7474024107
13 1 -3.6728206657 2.5970763988 -4.4982682738
14 1 -4.5910258321 1.2985381994 -2.2491341369
15 1 -5.5092309985 0.0 0.0
16 1 -6.4274361649 -1.2985381994 2.2491341369
17 1 -7.3456413313 -2.5970763988 4.4982682738
18 1 -8.2638464977 -3.8956145981 6.7474024107
19 1 -4.5910258321 5.1941527975 -4.4982682738
20 1 -5.5092309985 3.8956145981 -2.2491341369
21 1 -6.4274361649 2.5970763988 0.0
22 1 -7.3456413313 1.2985381994 2.2491341369
23 1 -8.2638464977 2.2204460493e-15 4.4982682738
24 1 -9.1820516641 -1.2985381994 6.7474024107
25 1 -5.5092309985 7.7912291963 -4.4982682738
26 1 -6.4274361649 6.4926909969 -2.2491341369
27 1 -7.3456413313 5.1941527975 0.0
28 1 -8.2638464977 3.8956145981 2.2491341369
29 1 -9.1820516641 2.5970763988 4.4982682738
30 1 -10.1002568305 1.2985381994 6.7474024107
31 1 -6.4274361649 10.3883055951 -4.4982682738
32 1 -7.3456413313 9.0897673957 -2.2491341369
33 1 -8.2638464977 7.7912291963 0.0
34 1 -9.1820516641 6.4926909969 2.2491341369
35 1 -10.1002568305 5.1941527975 4.4982682738
36 1 -11.018461997 3.8956145981 6.7474024107
37 1 0.9182051664 -2.5970763988 -4.4982682738
38 1 -1.2212453271e-15 -3.8956145981 -2.2491341369
39 1 -0.9182051664 -5.1941527975 0.0
40 1 -1.8364103328 -6.4926909969 2.2491341369
41 1 -2.7546154992 -7.7912291963 4.4982682738
42 1 -3.6728206657 -9.0897673957 6.7474024107
43 1 -1.1102230246e-15 -2.2204460493e-15 -4.4982682738
44 1 -0.9182051664 -1.2985381994 -2.2491341369
45 1 -1.8364103328 -2.5970763988 0.0
46 1 -2.7546154992 -3.8956145981 2.2491341369
47 1 -3.6728206657 -5.1941527975 4.4982682738
48 1 -4.5910258321 -6.4926909969 6.7474024107
49 1 -0.9182051664 2.5970763988 -4.4982682738
50 1 -1.8364103328 1.2985381994 -2.2491341369
51 1 -2.7546154992 0.0 0.0
52 1 -3.6728206657 -1.2985381994 2.2491341369
53 1 -4.5910258321 -2.5970763988 4.4982682738
54 1 -5.5092309985 -3.8956145981 6.7474024107
55 1 -1.8364103328 5.1941527975 -4.4982682738
56 1 -2.7546154992 3.8956145981 -2.2491341369
57 1 -3.6728206657 2.5970763988 0.0
58 1 -4.5910258321 1.2985381994 2.2491341369
59 1 -5.5092309985 2.2204460493e-15 4.4982682738
60 1 -6.4274361649 -1.2985381994 6.7474024107
61 1 -2.7546154992 7.7912291963 -4.4982682738
62 1 -3.6728206657 6.4926909969 -2.2491341369
63 1 -4.5910258321 5.1941527975 0.0
64 1 -5.5092309985 3.8956145981 2.2491341369
65 1 -6.4274361649 2.5970763988 4.4982682738
66 1 -7.3456413313 1.2985381994 6.7474024107
67 1 -3.6728206657 10.3883055951 -4.4982682738
68 1 -4.5910258321 9.0897673957 -2.2491341369
69 1 -5.5092309985 7.7912291963 0.0
70 1 -6.4274361649 6.4926909969 2.2491341369
71 1 -7.3456413313 5.1941527975 4.4982682738
72 1 -8.2638464977 3.8956145981 6.7474024107
73 1 3.6728206657 -2.5970763988 -4.4982682738
74 1 2.7546154992 -3.8956145981 -2.2491341369
75 1 1.8364103328 -5.1941527975 0.0
76 1 0.9182051664 -6.4926909969 2.2491341369
77 1 0.0 -7.7912291963 4.4982682738
78 1 -0.9182051664 -9.0897673957 6.7474024107
79 1 2.7546154992 -2.2204460493e-15 -4.4982682738
80 1 1.8364103328 -1.2985381994 -2.2491341369
81 1 0.9182051664 -2.5970763988 0.0
82 1 0.0 -3.8956145981 2.2491341369
83 1 -0.9182051664 -5.1941527975 4.4982682738
84 1 -1.8364103328 -6.4926909969 6.7474024107
85 1 1.8364103328 2.5970763988 -4.4982682738
86 1 0.9182051664 1.2985381994 -2.2491341369
87 1 0.0 0.0 0.0
88 1 -0.9182051664 -1.2985381994 2.2491341369
89 1 -1.8364103328 -2.5970763988 4.4982682738
90 1 -2.7546154992 -3.8956145981 6.7474024107
91 1 0.9182051664 5.1941527975 -4.4982682738
92 1 0.0 3.8956145981 -2.2491341369
93 1 -0.9182051664 2.5970763988 0.0
94 1 -1.8364103328 1.2985381994 2.2491341369
95 1 -2.7546154992 2.2204460493e-15 4.4982682738
96 1 -3.6728206657 -1.2985381994 6.7474024107
97 1 0.0 7.7912291963 -4.4982682738
98 1 -0.9182051664 6.4926909969 -2.2491341369
99 1 -1.8364103328 5.1941527975 0.0
100 1 -2.7546154992 3.8956145981 2.2491341369
101 1 -3.6728206657 2.5970763988 4.4982682738
102 1 -4.5910258321 1.2985381994 6.7474024107
103 1 -0.9182051664 10.3883055951 -4.4982682738
104 1 -1.8364103328 9.0897673957 -2.2491341369
105 1 -2.7546154992 7.7912291963 0.0
106 1 -3.6728206657 6.4926909969 2.2491341369
107 1 -4.5910258321 5.1941527975 4.4982682738
108 1 -5.5092309985 3.8956145981 6.7474024107
109 1 6.4274361649 -2.5970763988 -4.4982682738
110 1 5.5092309985 -3.8956145981 -2.2491341369
111 1 4.5910258321 -5.1941527975 0.0
112 1 3.6728206657 -6.4926909969 2.2491341369
113 1 2.7546154992 -7.7912291963 4.4982682738
114 1 1.8364103328 -9.0897673957 6.7474024107
115 1 5.5092309985 -2.2204460493e-15 -4.4982682738
116 1 4.5910258321 -1.2985381994 -2.2491341369
117 1 3.6728206657 -2.5970763988 0.0
118 1 2.7546154992 -3.8956145981 2.2491341369
119 1 1.8364103328 -5.1941527975 4.4982682738
120 1 0.9182051664 -6.4926909969 6.7474024107
121 1 4.5910258321 2.5970763988 -4.4982682738
122 1 3.6728206657 1.2985381994 -2.2491341369
123 1 2.7546154992 0.0 0.0
124 1 1.8364103328 -1.2985381994 2.2491341369
125 1 0.9182051664 -2.5970763988 4.4982682738
126 1 1.3322676296e-15 -3.8956145981 6.7474024107
127 1 3.6728206657 5.1941527975 -4.4982682738
128 1 2.7546154992 3.8956145981 -2.2491341369
129 1 1.8364103328 2.5970763988 0.0
130 1 0.9182051664 1.2985381994 2.2491341369
131 1 1.1102230246e-15 2.2204460493e-15 4.4982682738
132 1 -0.9182051664 -1.2985381994 6.7474024107
133 1 2.7546154992 7.7912291963 -4.4982682738
134 1 1.8364103328 6.4926909969 -2.2491341369
135 1 0.9182051664 5.1941527975 0.0
136 1 1.2212453271e-15 3.8956145981 2.2491341369
137 1 -0.9182051664 2.5970763988 4.4982682738
138 1 -1.8364103328 1.2985381994 6.7474024107
139 1 1.8364103328 10.3883055951 -4.4982682738
140 1 0.9182051664 9.0897673957 -2.2491341369
141 1 1.3322676296e-15 7.7912291963 0.0
142 1 -0.9182051664 6.4926909969 2.2491341369
143 1 -1.8364103328 5.1941527975 4.4982682738
144 1 -2.7546154992 3.8956145981 6.7474024107
145 1 9.1820516641 -2.5970763988 -4.4982682738
146 1 8.2638464977 -3.8956145981 -2.2491341369
147 1 7.3456413313 -5.1941527975 0.0
148 1 6.4274361649 -6.4926909969 2.2491341369
149 1 5.5092309985 -7.7912291963 4.4982682738
150 1 4.5910258321 -9.0897673957 6.7474024107
151 1 8.2638464977 -2.2204460493e-15 -4.4982682738
152 1 7.3456413313 -1.2985381994 -2.2491341369
153 1 6.4274361649 -2.5970763988 0.0
154 1 5.5092309985 -3.8956145981 2.2491341369
155 1 4.5910258321 -5.1941527975 4.4982682738
156 1 3.6728206657 -6.4926909969 6.7474024107
157 1 7.3456413313 2.5970763988 -4.4982682738
158 1 6.4274361649 1.2985381994 -2.2491341369
159 1 5.5092309985 0.0 0.0
160 1 4.5910258321 -1.2985381994 2.2491341369
161 1 3.6728206657 -2.5970763988 4.4982682738
162 1 2.7546154992 -3.8956145981 6.7474024107
163 1 6.4274361649 5.1941527975 -4.4982682738
164 1 5.5092309985 3.8956145981 -2.2491341369
165 1 4.5910258321 2.5970763988 0.0
166 1 3.6728206657 1.2985381994 2.2491341369
167 1 2.7546154992 2.2204460493e-15 4.4982682738
168 1 1.8364103328 -1.2985381994 6.7474024107
169 1 5.5092309985 7.7912291963 -4.4982682738
170 1 4.5910258321 6.4926909969 -2.2491341369
171 1 3.6728206657 5.1941527975 0.0
172 1 2.7546154992 3.8956145981 2.2491341369
173 1 1.8364103328 2.5970763988 4.4982682738
174 1 0.9182051664 1.2985381994 6.7474024107
175 1 4.5910258321 10.3883055951 -4.4982682738
176 1 3.6728206657 9.0897673957 -2.2491341369
177 1 2.7546154992 7.7912291963 0.0
178 1 1.8364103328 6.4926909969 2.2491341369
179 1 0.9182051664 5.1941527975 4.4982682738
180 1 2.6645352591e-15 3.8956145981 6.7474024107
181 1 11.9366671634 -2.5970763988 -4.4982682738
182 1 11.018461997 -3.8956145981 -2.2491341369
183 1 10.1002568305 -5.1941527975 0.0
184 1 9.1820516641 -6.4926909969 2.2491341369
185 1 8.2638464977 -7.7912291963 4.4982682738
186 1 7.3456413313 -9.0897673957 6.7474024107
187 1 11.018461997 -2.2204460493e-15 -4.4982682738
188 1 10.1002568305 -1.2985381994 -2.2491341369
189 1 9.1820516641 -2.5970763988 0.0
190 1 8.2638464977 -3.8956145981 2.2491341369
191 1 7.3456413313 -5.1941527975 4.4982682738
192 1 6.4274361649 -6.4926909969 6.7474024107
193 1 10.1002568305 2.5970763988 -4.4982682738
194 1 9.1820516641 1.2985381994 -2.2491341369
195 1 8.2638464977 0.0 0.0
196 1 7.3456413313 -1.2985381994 2.2491341369
197 1 6.4274361649 -2.5970763988 4.4982682738
198 1 5.5092309985 -3.8956145981 6.7474024107
199 1 9.1820516641 5.1941527975 -4.4982682738
200 1 8.2638464977 3.8956145981 -2.2491341369
201 1 7.3456413313 2.5970763988 0.0
202 1 6.4274361649 1.2985381994 2.2491341369
203 1 5.5092309985 2.2204460493e-15 4.4982682738
204 1 4.5910258321 -1.2985381994 6.7474024107
205 1 8.2638464977 7.7912291963 -4.4982682738
206 1 7.3456413313 6.4926909969 -2.2491341369
207 1 6.4274361649 5.1941527975 0.0
208 1 5.5092309985 3.8956145981 2.2491341369
209 1 4.5910258321 2.5970763988 4.4982682738
210 1 3.6728206657 1.2985381994 6.7474024107
212 1 6.4274361649 9.0897673957 -2.2491341369
213 1 5.5092309985 7.7912291963 0.0
214 1 4.5910258321 6.4926909969 2.2491341369
215 1 3.6728206657 5.1941527975 4.4982682738
216 1 2.7546154992 3.8956145981 6.7474024107
                                                                                                                                                                                                                                                                                                                                                                                                                                                                                                                                                                                                                                                                                                                                                                                                                                                                                                                                                                                                                                                                                                                                                                                                                                                                                                                                                                                                                                                                                                                                                                                                                                                                                                                                                                                                                                                                                                                                                                                                                                                                                                                                                                                                                                                                                                                                                                                                                                                                                                                                                                                                                                                                                                                                                                                                                                                                                                                                                                                                                                                                                                                                                                                                                                                                                                                                                                                                                                                                                                                                                                                                                                                                                                                                                                                                                                                                                                                                                                                                                                                                                                                                                                                                                                                                                                                                                                                                                                                                                                                                                                                                                                                                                                                                                                                                                                                                                                                                                                                                                                                                                                                                                                                                                                                                                                                                                                                                                                                                                                                                                                                                                                                                                                                                                                                                                                                                                                                                                                                                                                                                                                                                                                                                                                                                                                                                                                                                                                                                                                                                                                                                                                                                                0
102 0 0 0
136 0 0 0
137 0 0 0
138 0 0 0
172 0 0 0
173 0 0 0
174 0 0 0
208 0 0 0
209 0 0 0
210 0 0 0
205 0 0 0
110 0 0 0
32 0 0 0
33 0 0 0
67 0 0 0
68 0 0 0
69 0 0 0
103 0 0 0
104 0 0 0
105 0 0 0
139 0 0 0
140 0 0 0
141 0 0 0
175 0 0 0
176 0 0 0
177 0 0 0
212 0 0 0
213 0 0 0
111 0 0 0
2 0 0 0
3 0 0 0
75 0 0 0
183 0 0 0
182 0 0 0
181 0 0 0
38 0 0 0
39 0 0 0
74 0 0 0
147 0 0 0
146 0 0 0
34 0 0 0
70 0 0 0
214 0 0 0
112 0 0 0
4 0 0 0
40 0 0 0
148 0 0 0
184 0 0 0
76 0 0 0
113 0 0 0
35 0 0 0
36 0 0 0
114 0 0 0
71 0 0 0
72 0 0 0
106 0 0 0
107 0 0 0
108 0 0 0
142 0 0 0
143 0 0 0
144 0 0 0
178 0 0 0
179 0 0 0
180 0 0 0
78 0 0 0
215 0 0 0
216 0 0 0
77 0 0 0
5 0 0 0
6 0 0 0
149 0 0 0
186 0 0 0
185 0 0 0
150 0 0 0
41 0 0 0
42 0 0 0
31 0 0 0
1 0 0 0
37 0 0 0
109 0 0 0
73 0 0 0
145 0 0 0
