LAMMPS data file via write_data, version 28 Mar 2023, timestep = 1

4 atoms
1 atom types

0 3.63186 xlo xhi
0 3.63186 ylo yhi
0 3.63186 zlo zhi
0 0 0 xy xz yz

Masses

1 63.546

Atoms # atomic

1 1 0 0 0 0 0 0
2 1 1.81593 0 1.81593 0 0 0
3 1 1.81593 1.81593 0 0 0 0
4 1 0 1.81593 1.81593 0 0 0

Velocities

1 0 0 0
2 0 0 0
3 0 0 0
4 0 0 0
