 # W54
  
         114  atoms
           2  atom types
 
      0.000000000000      22.824300000000  xlo xhi
      0.000000000000       2.689900000000  ylo yhi
      0.000000000000      26.088300000000  zlo zhi
 
Masses
 
            1   183.84000000            # W
            2   63.54600000             # Cu
 
Atoms # atomic
 
         1    1        0.000000000000       0.000000000000       0.000000000000
         2    1        2.536030797300       1.793267563300       0.000000000000
         3    1        3.804057608100       0.000000000000       2.196271059200
         4    1        6.340088405400       1.793267563300       2.196271059200
         5    1        1.268026810800       0.896632436700       2.196271059200
         6    1        5.072061594600       0.896632436700       0.000000000000
         7    1        7.608092391900       0.000000000000       0.000000000000
         8    1       10.144123189200       1.793267563300       0.000000000000
         9    1       11.412150000000       0.000000000000       2.196271059200
        10    1       13.948180797300       1.793267563300       2.196271059200
        11    1        8.876119202700       0.896632436700       2.196271059200
        12    1       12.680176810800       0.896632436700       0.000000000000
        13    1       15.216207608100       0.000000000000       0.000000000000
        14    1       17.752238405400       1.793267563300       0.000000000000
        15    1       19.020242391900       0.000000000000       2.196271059200
        16    1       21.556273189200       1.793267563300       2.196271059200
        17    1       16.484211594600       0.896632436700       2.196271059200
        18    1       20.288269202700       0.896632436700       0.000000000000
        19    1       22.824300000000       0.000000000000       4.392528940800
        20    1        2.536030797300       1.793267563300       4.392528940800
        21    1        3.804057608100       0.000000000000       6.588800000000
        22    1        6.340088405400       1.793267563300       6.588800000000
        23    1        1.268026810800       0.896632436700       6.588800000000
        24    1        5.072061594600       0.896632436700       4.392528940800
        25    1        7.608092391900       0.000000000000       4.392528940800
        26    1       10.144123189200       1.793267563300       4.392528940800
        27    1       11.412150000000       0.000000000000       6.588800000000
        28    1       13.948180797300       1.793267563300       6.588800000000
        29    1        8.876119202700       0.896632436700       6.588800000000
        30    1       12.680176810800       0.896632436700       4.392528940800
        31    1       15.216207608100       0.000000000000       4.392528940800
        32    1       17.752238405400       1.793267563300       4.392528940800
        33    1       19.020242391900       0.000000000000       6.588800000000
        34    1       21.556273189200       1.793267563300       6.588800000000
        35    1       16.484211594600       0.896632436700       6.588800000000
        36    1       20.288269202700       0.896632436700       4.392528940800
        37    1        0.000000000000       0.000000000000       8.785071059200
        38    1        2.536030797300       1.793267563300       8.785071059200
        39    1        3.804057608100       0.000000000000      10.981328940800
        40    1        6.340088405400       1.793267563300      10.981328940800
        41    1        1.268026810800       0.896632436700      10.981328940800
        42    1        5.072061594600       0.896632436700       8.785071059200
        43    1        7.608092391900       0.000000000000       8.785071059200
        44    1       10.144123189200       1.793267563300       8.785071059200
        45    1       11.412150000000       0.000000000000      10.981328940800
        46    1       13.948180797300       1.793267563300      10.981328940800
        47    1        8.876119202700       0.896632436700      10.981328940800
        48    1       12.680176810800       0.896632436700       8.785071059200
        49    1       15.216207608100       0.000000000000       8.785071059200
        50    1       17.752238405400       1.793267563300       8.785071059200
        51    1       19.020242391900       0.000000000000      10.981328940800
        52    1       21.556273189200       1.793267563300      10.981328940800
        53    1       16.484211594600       0.896632436700      10.981328940800
        54    1       20.288269202700       0.896632436700       8.785071059200
        55    2        0.000000000000       0.000000000000      13.177600000000
        56    2        3.043072392300       2.635400000000      17.481162363100
        57    2        1.521547607700       0.000000000000      15.329387636900
        58    2        3.803857607700       1.317700000000      15.329387636900
        59    2        0.760762392300       1.317700000000      17.481162363100
        60    2        2.282310000000       1.317700000000      13.177600000000
        61    2        4.564620000000       0.000000000000      13.177600000000
        62    2        7.607692392300       2.635400000000      17.481162363100
        63    2        6.086167607700       0.000000000000      15.329387636900
        64    2        8.368477607700       1.317700000000      15.329387636900
        65    2        5.325382392300       1.317700000000      17.481162363100
        66    2        6.846930000000       1.317700000000      13.177600000000
        67    2        9.129240000000       0.000000000000      13.177600000000
        68    2       12.172312392300       2.635400000000      17.481162363100
        69    2       10.650787607700       0.000000000000      15.329387636900
        70    2       12.933097607700       1.317700000000      15.329387636900
        71    2        9.890002392300       1.317700000000      17.481162363100
        72    2       11.411550000000       1.317700000000      13.177600000000
        73    2       13.693860000000       0.000000000000      13.177600000000
        74    2       16.736932392300       2.635400000000      17.481162363100
        75    2       15.215407607700       0.000000000000      15.329387636900
        76    2       17.497717607700       1.317700000000      15.329387636900
        77    2       14.454622392300       1.317700000000      17.481162363100
        78    2       15.976170000000       1.317700000000      13.177600000000
        79    2       18.258480000000       0.000000000000      13.177600000000
        80    2       21.301552392300       2.635400000000      17.481162363100
        81    2       19.780027607700       0.000000000000      15.329387636900
        82    2       22.062337607700       1.317700000000      15.329387636900
        83    2       19.019242392300       1.317700000000      17.481162363100
        84    2       20.540790000000       1.317700000000      13.177600000000
        85    2       22.823100000000       2.635400000000      19.632950000000
        86    2        3.043072392300       2.635400000000      23.936512363100
        87    2        1.521547607700       2.635400000000      21.784737636900
        88    2        3.803857607700       1.317700000000      21.784737636900
        89    2        0.760762392300       1.317700000000      23.936512363100
        90    2        2.282310000000       1.317700000000      19.632950000000
        91    2        4.564620000000       2.635400000000      19.632950000000
        92    2        7.607692392300       2.635400000000      23.936512363100
        93    2        6.086167607700       2.635400000000      21.784737636900
        94    2        8.368477607700       1.317700000000      21.784737636900
        95    2        5.325382392300       1.317700000000      23.936512363100
        96    2        6.846930000000       1.317700000000      19.632950000000
        97    2        9.129240000000       2.635400000000      19.632950000000
        98    2       12.172312392300       2.635400000000      23.936512363100
        99    2       10.650787607700       2.635400000000      21.784737636900
       100    2       12.933097607700       1.317700000000      21.784737636900
       101    2        9.890002392300       1.317700000000      23.936512363100
       102    2       11.411550000000       1.317700000000      19.632950000000
       103    2       13.693860000000       2.635400000000      19.632950000000
       104    2       16.736932392300       2.635400000000      23.936512363100
       105    2       15.215407607700       2.635400000000      21.784737636900
       106    2       17.497717607700       1.317700000000      21.784737636900
       107    2       14.454622392300       1.317700000000      23.936512363100
       108    2       15.976170000000       1.317700000000      19.632950000000
       109    2       18.258480000000       2.635400000000      19.632950000000
       110    2       21.301552392300       2.635400000000      23.936512363100
       111    2       19.780027607700       2.635400000000      21.784737636900
       112    2       22.062337607700       1.317700000000      21.784737636900
       113    2       19.019242392300       1.317700000000      23.936512363100
       114    2       20.540790000000       1.317700000000      19.632950000000
