 # W36
  
          84  atoms
           2  atom types
 
      0.000000000000       4.671100000000  xlo xhi
      0.000000000000       9.909000000000  ylo yhi
      0.000000000000      26.148100000000  zlo zhi
 
Masses
 
            1   183.84000000            # W
            2   63.54600000             # Cu
 
Atoms # atomic
 
         1    1        0.000000000000       0.000000000000       0.000000000000
         2    1        2.335550000000       0.000000000000       2.335571337800
         3    1        2.335550000000       1.651503303000       0.000000000000
         4    1        0.000000000000       1.651503303000       2.335571337800
         5    1        0.000000000000       3.302996697000       0.000000000000
         6    1        2.335550000000       3.302996697000       2.335571337800
         7    1        2.335550000000       4.954500000000       0.000000000000
         8    1        0.000000000000       4.954500000000       2.335571337800
         9    1        0.000000000000       6.606003303000       0.000000000000
        10    1        2.335550000000       6.606003303000       2.335571337800
        11    1        2.335550000000       8.257496697000       0.000000000000
        12    1        0.000000000000       8.257496697000       2.335571337800
        13    1        0.000000000000       0.000000000000       4.671128662200
        14    1        2.335550000000       0.000000000000       7.006700000000
        15    1        2.335550000000       1.651503303000       4.671128662200
        16    1        0.000000000000       1.651503303000       7.006700000000
        17    1        0.000000000000       3.302996697000       4.671128662200
        18    1        2.335550000000       3.302996697000       7.006700000000
        19    1        2.335550000000       4.954500000000       4.671128662200
        20    1        0.000000000000       4.954500000000       7.006700000000
        21    1        0.000000000000       6.606003303000       4.671128662200
        22    1        2.335550000000       6.606003303000       7.006700000000
        23    1        2.335550000000       8.257496697000       4.671128662200
        24    1        0.000000000000       8.257496697000       7.006700000000
        25    1        0.000000000000       9.909000000000       9.342271337800
        26    1        2.335550000000       0.000000000000      11.677828662200
        27    1        2.335550000000       1.651503303000       9.342271337800
        28    1        0.000000000000       1.651503303000      11.677828662200
        29    1        0.000000000000       3.302996697000       9.342271337800
        30    1        2.335550000000       3.302996697000      11.677828662200
        31    1        2.335550000000       4.954500000000       9.342271337800
        32    1        0.000000000000       4.954500000000      11.677828662200
        33    1        0.000000000000       6.606003303000       9.342271337800
        34    1        2.335550000000       6.606003303000      11.677828662200
        35    1        2.335550000000       8.257496697000       9.342271337800
        36    1        0.000000000000       8.257496697000      11.677828662200
        37    2        0.000000000000       0.000000000000      14.013400000000
        38    2        2.860201430100       9.908000000000      18.058295955100
        39    2        1.430098569900       9.908000000000      16.035854044900
        40    2        3.575248569900       1.238500000000      16.035854044900
        41    2        0.715051430100       1.238500000000      18.058295955100
        42    2        2.145150000000       1.238500000000      14.013400000000
        43    2        0.000000000000       2.477000000000      14.013400000000
        44    2        2.860201430100       2.477000000000      18.058295955100
        45    2        1.430098569900       2.477000000000      16.035854044900
        46    2        3.575248569900       3.715500000000      16.035854044900
        47    2        0.715051430100       3.715500000000      18.058295955100
        48    2        2.145150000000       3.715500000000      14.013400000000
        49    2        0.000000000000       4.954000000000      14.013400000000
        50    2        2.860201430100       4.954000000000      18.058295955100
        51    2        1.430098569900       4.954000000000      16.035854044900
        52    2        3.575248569900       6.192500000000      16.035854044900
        53    2        0.715051430100       6.192500000000      18.058295955100
        54    2        2.145150000000       6.192500000000      14.013400000000
        55    2        0.000000000000       7.431000000000      14.013400000000
        56    2        2.860201430100       7.431000000000      18.058295955100
        57    2        1.430098569900       7.431000000000      16.035854044900
        58    2        3.575248569900       8.669500000000      16.035854044900
        59    2        0.715051430100       8.669500000000      18.058295955100
        60    2        2.145150000000       8.669500000000      14.013400000000
        61    2        0.000000000000       0.000000000000      20.080750000000
        62    2        2.860201430100       0.000000000000      24.125645955100
        63    2        1.430098569900       9.908000000000      22.103204044900
        64    2        3.575248569900       1.238500000000      22.103204044900
        65    2        0.715051430100       1.238500000000      24.125645955100
        66    2        2.145150000000       1.238500000000      20.080750000000
        67    2        0.000000000000       2.477000000000      20.080750000000
        68    2        2.860201430100       2.477000000000      24.125645955100
        69    2        1.430098569900       2.477000000000      22.103204044900
        70    2        3.575248569900       3.715500000000      22.103204044900
        71    2        0.715051430100       3.715500000000      24.125645955100
        72    2        2.145150000000       3.715500000000      20.080750000000
        73    2        0.000000000000       4.954000000000      20.080750000000
        74    2        2.860201430100       4.954000000000      24.125645955100
        75    2        1.430098569900       4.954000000000      22.103204044900
        76    2        3.575248569900       6.192500000000      22.103204044900
        77    2        0.715051430100       6.192500000000      24.125645955100
        78    2        2.145150000000       6.192500000000      20.080750000000
        79    2        0.000000000000       7.431000000000      20.080750000000
        80    2        2.860201430100       7.431000000000      24.125645955100
        81    2        1.430098569900       7.431000000000      22.103204044900
        82    2        3.575248569900       8.669500000000      22.103204044900
        83    2        0.715051430100       8.669500000000      24.125645955100
        84    2        2.145150000000       8.669500000000      20.080750000000
